ITEM: TIMESTEP
20000
ITEM: NUMBER OF ATOMS
8192
ITEM: BOX BOUNDS pp pp pp
-0.403233 51.6282997
-0.403233 51.6282997
-0.403233 51.6282997
ITEM: ATOMS id type mass x y z vx vy vz StructureType
3910 1 95.9400024 50.4724999 3.46345 0.395883 -5.57937 -3.25173 -1.41051 0
294 1 95.9400024 2.2974301 3.4988899 3.6029899 3.2893901 4.1436701 3.51593 0
4367 1 95.9400024 21.6254998 25.4759007 4.11869 -1.06341 -2.08096 6.3928099 0
7906 1 95.9400024 0.659195 0.630959 2.2748201 2.5334001 4.7965002 6.53229 0
36 1 95.9400024 2.94446 1.40153 1.85363 1.88587 5.5552602 -1.5987001 0
37 1 95.9400024 5.5337301 1.9578 1.6852 -3.86634 -9.7406397 2.29931 0
5068 1 95.9400024 8.0863705 1.99181 1.20116 -8.4513798 -5.4568601 8.22822 0
3674 1 95.9400024 38.7094994 10.4772997 0.0158234 0.0995518 0.180672 -7.4454298 0
4008 1 95.9400024 10.2023001 12.0298996 -0.231306 1.27941 4.26828 4.78547 0
7916 1 95.9400024 15.1571999 -0.0051641 -0.280132 8.6848898 1.02083 1.59499 0
777 1 95.9400024 12.2669001 0.739802 1.72437 -0.478228 1.81237 -9.0659199 0
10 1 95.9400024 15.2301998 -0.0314214 2.88492 -1.28601 3.54159 -0.68815 0
298 1 95.9400024 18.1865997 1.34158 2.25329 1.71426 11.5199003 -5.4211102 0
523 1 95.9400024 17.0797005 1.9634 0.225726 2.1740899 -1.16837 2.17151 0
521 1 95.9400024 15.8913002 2.6994701 3.1752999 -9.8975802 1.78737 1.4114601 0
305 1 95.9400024 21.0928993 2.3505499 2.29145 -1.84837 -2.3159001 -4.0053701 0
268 1 95.9400024 19.5163002 1.57256 -0.316297 -2.88915 -0.962059 -1.25781 0
308 1 95.9400024 30.9085008 3.8113899 -0.0944557 -6.5626202 6.7210202 -3.5854001 0
297 1 95.9400024 17.4904003 5.7389102 0.289042 2.6591401 7.22052 -0.0836498 0
50 1 95.9400024 22.0044003 1.07647 0.161803 7.0062499 4.96374 -2.0216999 0
306 1 95.9400024 24.1165009 2.0783401 1.3796901 -0.174343 2.7830801 -4.6345301 0
8178 1 95.9400024 29.4127007 -0.398598 3.0006101 -7.44624 -4.2646299 -4.5924201 0
274 1 95.9400024 25.9160996 0.0927767 2.0675199 -0.919557 -2.2743101 -4.8917198 0
4336 1 95.9400024 29.3430004 1.8257801 1.08187 -3.54668 -9.3824301 -10.6601 0
15 1 95.9400024 26.7784996 2.41031 1.22286 -0.122866 3.2444899 -10.5138998 0
5661 1 95.9400024 42.6190987 24.8869992 16.5767002 -3.8320501 -3.77579 -5.34623 0
3860 1 95.9400024 31.8614006 1.21592 1.0388 1.42149 2.5964501 -6.37568 0
3994 1 95.9400024 40.997799 17.5671997 0.944424 -3.0364699 1.3858 3.6970101 0
539 1 95.9400024 36.2797012 2.38679 3.35425 -7.0857501 -3.9661802 11.1784 0
26 1 95.9400024 36.0007019 1.5200401 1.02973 2.3842399 14.7678004 -1.7274 0
4054 1 95.9400024 30.7502995 22.0326004 -0.0176836 3.49805 2.3274 -1.62033 0
997 1 95.9400024 14.0546999 24.4790993 8.8594704 -4.4647999 -0.945235 2.0229299 0
283 1 95.9400024 38.5205994 2.5534899 0.911847 2.26472 8.0818396 5.43325 0
280 1 95.9400024 41.0777016 3.99748 0.0727053 -1.82854 -0.438113 -9.48555 4
282 1 95.9400024 41.200901 0.869731 0.782137 6.9124098 -3.6252799 0.645518 0
3901 1 95.9400024 43.6570015 0.514771 2.51175 3.3043499 5.08145 -1.70314 0
312 1 95.9400024 40.881302 0.0704044 3.20894 0.533169 1.90325 -1.44611 0
4538 1 95.9400024 35.0950012 -0.350241 3.49945 2.54824 -5.8079 -1.09086 0
1862 1 95.9400024 8.9857102 8.2453699 25.3512001 -3.8736502 3.6036101 3.6680701 0
31 1 95.9400024 45.3366013 2.39047 3.4774499 -16.6567002 -6.3395 -7.1505899 0
4351 1 95.9400024 46.0661011 0.48065 1.27864 2.50334 4.4326802 2.52 0
93 1 95.9400024 45.1269989 4.5402899 1.3669601 -7.1669698 -6.0564699 6.4533401 0
711 1 95.9400024 12.8256998 16.2112999 0.0019249 7.3821001 -6.7894101 8.2431002 0
3617 1 95.9400024 49.6624985 1.24581 2.5481 -4.1617098 5.47327 0.7634231 0
8164 1 95.9400024 51.4319 0.757361 -0.146248 9.1358299 -10.1202002 -9.0144701 0
68 1 95.9400024 0.779511 4.96169 1.99219 5.9126102 -0.594528 1.5067901 0
34 1 95.9400024 1.66724 5.9703698 -0.208082 -4.88196 1.57308 -1.2636 0
101 1 95.9400024 3.67574 4.0277801 1.5431301 3.6295901 -0.192663 7.2732902 0
3940 1 95.9400024 4.1705599 5.9527602 -0.140217 3.00214 -1.0447201 -2.3622799 0
293 1 95.9400024 6.05755 5.0624399 2.14429 -3.3777001 -5.4966402 4.6523099 0
8168 1 95.9400024 8.36866 4.7853899 1.3257101 -1.30561 -5.53792 6.2175202 0
8 1 95.9400024 9.9084998 2.86746 2.99142 0.908454 -4.35957 -7.08743 0
3909 1 95.9400024 8.3206701 7.46452 1.78118 -9.1374998 1.96294 -10.8989 0
551 1 95.9400024 10.9597998 2.8186701 0.593703 -0.0394717 8.6277399 6.5132599 0
72 1 95.9400024 11.0396996 5.3403401 1.8058501 0.824337 -5.8221998 0.989305 0
587 1 95.9400024 12.8410998 3.4747701 2.56462 -3.25243 7.8702998 3.8901802 0
5091 1 95.9400024 6.2172599 -0.277123 10.6665001 -4.8439102 -1.76254 3.06458 0
264 1 95.9400024 15.7365999 4.94166 2.00596 2.29051 -7.7754698 -3.94588 0
773 1 95.9400024 8.8979598 -0.315196 5.44977 0.398493 -3.70783 3.6468201 0
329 1 95.9400024 18.8066998 3.88028 1.32775 3.9051002 -0.809698 -3.4042301 0
270 1 95.9400024 22.2924004 4.2797098 0.937583 1.74262 4.6332002 -1.98948 0
42 1 95.9400024 20.1187992 6.4223099 1.5390101 1.7689901 1.22286 2.2856901 0
339 1 95.9400024 25.0470009 5.2630201 0.946852 -3.51494 -2.9161602 7.15516 0
367 1 95.9400024 22.8369999 6.66572 2.1966801 2.7571001 -0.97893 4.84821 0
307 1 95.9400024 29.5541001 4.3976898 2.57951 -3.6143799 -5.5107398 -5.64818 0
340 1 95.9400024 27.3495007 6.7527499 1.51594 1.95649 0.339268 -4.0996199 0
128 1 95.9400024 47.0443993 16.4335995 0.432294 0.177063 1.4415701 -2.3180101 0
53 1 95.9400024 32.0932007 4.03055 2.7950599 4.10814 -1.8909302 -9.0748301 0
3925 1 95.9400024 32.7821999 6.51262 0.940203 -4.9052702 4.82369 6.4882899 0
1799 1 95.9400024 9.6177101 -0.107198 20.4356995 -2.4989 -0.31792 -6.7142101 0
310 1 95.9400024 33.9319992 3.85457 1.14629 0.177831 -10.4893999 6.8010502 0
3958 1 95.9400024 35.3003998 6.5619302 0.416937 -0.760395 -4.6837802 2.90726 0
4345 1 95.9400024 36.5121002 4.6640201 1.58774 7.2321801 10.7364998 -11.1855002 0
279 1 95.9400024 37.1119003 6.8420802 3.42501 -7.0954099 1.67021 -5.3427601 0
4603 1 95.9400024 39.5007019 5.61443 2.0699301 3.2169399 -2.204 -2.3080101 0
122 1 95.9400024 43.2005997 2.94472 1.37093 1.29611 -1.48044 -3.48807 0
409 1 95.9400024 42.047699 5.9112802 1.69344 2.5817201 -1.88703 1.28222 0
4067 1 95.9400024 3.65728 18.8197994 -0.0284466 6.5237003 -4.5192299 -2.1589 0
60 1 95.9400024 44.5024987 7.3355999 2.7449999 -1.35872 6.9924798 11.8140002 0
4340 1 95.9400024 28.8145008 -0.23077 7.4761901 -3.81374 5.5545202 -0.491637 0
260 1 95.9400024 4.5575199 -0.0465879 0.0351164 0.138758 2.4777601 -3.2583399 0
319 1 95.9400024 49.1189003 4.1352501 3.07532 -5.6580701 0.0479454 0.972719 0
62 1 95.9400024 47.5993996 6.69974 1.85322 -12.5054999 2.32007 -8.7832604 0
292 1 95.9400024 2.5428 7.1392899 2.3641601 -6.4862499 2.0748601 -4.02284 0
160 1 95.9400024 0.42251 7.9803902 1.56109 -2.2015801 1.6230901 6.4530101 0
66 1 95.9400024 3.0359001 8.8957702 0.600008 2.4105301 -7.0338802 -2.91518 0
419 1 95.9400024 -0.113091 10.9147998 0.412101 -3.2922599 4.89992 6.0929098 0
325 1 95.9400024 5.6666799 7.69837 1.79536 5.45367 -2.0155101 -3.9809102 0
1335 1 95.9400024 39.8339997 -0.148799 13.4756003 -1.84385 -0.723243 8.2497301 0
4151 1 95.9400024 38.885601 25.5529995 3.1558499 -5.5826402 2.0738299 -0.0933657 0
99 1 95.9400024 7.6237898 9.6210804 0.503184 4.3673601 -3.99559 -1.5721801 0
3946 1 95.9400024 11.8953 10.6309004 1.21342 -0.849562 6.10884 -3.5428701 0
393 1 95.9400024 11.5341997 8.2144499 2.5492301 5.1085 7.2344098 1.40818 0
330 1 95.9400024 13.5914002 6.5445199 2.6770201 -6.28513 5.0818901 5.7441001 0
3852 1 95.9400024 12.0714998 7.4856401 0.21655 2.55244 4.7266302 -5.9130602 0
43 1 95.9400024 16.1137009 7.2597599 2.6066401 2.6303001 1.79995 2.4796901 0
73 1 95.9400024 16.0641003 10.2329998 2.61235 -3.2230799 -1.07942 -0.303632 0
110 1 95.9400024 13.9731998 8.9637004 1.38553 -1.5560301 -0.86699 7.9706502 0
2047 1 95.9400024 46.9700012 24.1760998 19.2758999 6.19274 -0.309598 0.532032 0
4584 1 95.9400024 13.2304001 0.0273897 15.3975001 0.4576 4.80018 5.9394798 0
111 1 95.9400024 19.9286996 8.8752404 0.436915 0.167995 -3.9856602 0.601893 0
1514 1 95.9400024 12.8619004 25.4463997 19.6994992 4.6348501 2.2932799 1.55395 0
3892 1 95.9400024 23.9648992 8.1779499 0.41723 4.1870499 8.3179798 -2.78875 0
5061 1 95.9400024 10.6573 0.48552 14.4616003 4.96906 2.3905399 7.5662999 0
785 1 95.9400024 21.4852009 -0.370248 10.0183001 7.5369802 -2.50983 1.1457601 0
627 1 95.9400024 25.3672009 7.3358202 2.78039 3.54718 -2.8998402 0.432982 0
593 1 95.9400024 28.6546002 9.1173496 2.2385001 5.0471101 -7.8595 1.37787 0
3955 1 95.9400024 26.0690994 9.4928704 1.05223 -0.7399251 4.93777 -3.83493 0
595 1 95.9400024 29.5629006 7.32757 0.437244 5.9043002 -4.2650199 3.96656 2
83 1 95.9400024 31.6068001 8.74475 1.66352 -6.1472502 -0.338196 -1.8339 0
147 1 95.9400024 30.1567001 11.1351996 -0.29902 -12.3596001 -4.3741202 -2.8288701 0
86 1 95.9400024 35.0306015 8.3521099 2.0522101 3.7081101 -1.85595 -0.0109788 0
313 1 95.9400024 39.7080002 7.6508498 3.3194201 -5.3340402 -3.7713001 16.8068009 0
346 1 95.9400024 38.0962982 9.5425997 2.3129201 -1.7477601 -3.8971802 -3.74644 0
377 1 95.9400024 40.6535988 10.8466998 1.8667002 2.51476 4.0158401 7.3292298 0
345 1 95.9400024 37.7834015 7.1251898 0.262738 1.60803 -8.4930897 -2.35711 0
375 1 95.9400024 42.3706017 8.7835703 2.98083 3.0548101 -1.40516 0.955899 0
3968 1 95.9400024 43.0573998 10.3971996 0.778813 1.80862 5.3238301 -4.6707201 0
90 1 95.9400024 40.1641007 10.5471001 4.3831902 1.55435 -10.8565998 7.87286 0
151 1 95.9400024 40.2342987 13.0403004 -0.201492 -0.872211 -4.8242502 -0.443596 0
3671 1 95.9400024 40.3073998 8.5330696 1.00939 8.9993496 3.71542 -6.2188401 0
635 1 95.9400024 45.2397003 10.5137997 2.85325 -2.1113601 2.02635 8.7801905 0
96 1 95.9400024 45.8470002 8.74856 0.471433 -6.9191098 1.50655 3.20049 0
353 1 95.9400024 47.9169998 9.5466204 2.56543 -3.12008 1.19872 -0.819084 0
380 1 95.9400024 49.9910012 8.55231 0.828952 -0.121438 -2.6200199 6.7012301 0
387 1 95.9400024 0.717166 12.6794005 2.7098999 1.9857302 -11.1702995 -3.98451 0
257 1 95.9400024 1.28913 3.21525 0.427489 0.383004 -4.9985 -2.6285 0
129 1 95.9400024 2.0771799 11.8985004 0.366578 6.27353 0.187903 0.0055349 0
163 1 95.9400024 4.9506102 10.8060999 0.56848 13.2320004 0.571579 3.78401 0
420 1 95.9400024 5.8059101 13.6219998 1.65615 0.278779 1.07364 0.34869 0
1267 1 95.9400024 25.7476006 25.0702992 12.5356999 -0.419733 4.6896 -0.976524 0
357 1 95.9400024 9.6585503 10.2333002 1.82775 -0.298791 -6.9366398 -3.96115 0
134 1 95.9400024 8.4582596 12.8612004 2.57917 -6.4042401 -9.2232304 1.01768 0
389 1 95.9400024 6.13344 10.9533006 2.5445199 -2.74947 -0.853852 -6.6874099 0
1960 1 95.9400024 9.2194996 19.4311009 25.2117996 6.2329202 -4.2254601 -2.2423501 0
107 1 95.9400024 13.8774996 11.8610002 2.1603899 4.92444 9.2715798 -5.63483 0
3949 1 95.9400024 16.7791996 13.0515003 2.14921 -11.5345001 -1.21584 -5.5164299 0
4011 1 95.9400024 18.2506008 10.8617002 0.612876 -3.7233501 3.0615599 2.59482 0
81 1 95.9400024 20.5638008 11.6997004 1.5396301 4.2164202 -3.1115 5.13905 0
3920 1 95.9400024 23.7677994 10.6542998 1.1247 1.77026 14.4095001 -3.9287902 0
399 1 95.9400024 22.7136994 13.7320996 1.21621 15.6787005 6.1876798 2.9210602 0
4085 1 95.9400024 28.8852998 20.3967991 -0.279455 -2.6287799 -0.373955 1.04179 0
368 1 95.9400024 25.3941002 12.6645003 1.60242 -6.59163 -2.3332801 2.3718901 0
146 1 95.9400024 30.0414009 13.3183003 0.662764 7.1799202 -3.90406 -0.0286501 0
883 1 95.9400024 33.6170006 10.2729998 3.0153799 9.1287499 -2.12165 -0.469112 0
116 1 95.9400024 31.0573998 11.1014996 2.1761301 3.8095 -1.37716 -0.179142 0
88 1 95.9400024 36.1938019 11.1178999 1.22806 4.7550702 -0.297052 -4.61234 0
3990 1 95.9400024 34.8274994 13.2375002 1.72503 8.5973597 0.738786 -4.4074702 0
150 1 95.9400024 38.5135994 12.4541998 2.5359001 -5.6989002 5.0549598 -1.34257 0
411 1 95.9400024 38.2504997 14.8282004 2.84866 -2.3144701 -1.9438602 6.4895301 0
153 1 95.9400024 41.0116997 13.5922003 2.14328 -0.74083 4.15768 2.7339399 0
412 1 95.9400024 42.3969002 14.9362002 1.07897 -1.51332 -1.7927801 2.26738 0
670 1 95.9400024 46.9462014 11.6687002 1.67122 -4.4358402 1.84317 0.678124 0
126 1 95.9400024 47.5535012 14.0108995 2.1682501 3.1345601 4.1824498 -5.92019 0
94 1 95.9400024 44.361599 12.8879996 1.67871 2.3464501 0.376469 11.0591002 0
3999 1 95.9400024 49.5381012 11.5882998 0.926924 -2.84742 -7.8901402 -1.8212101 0
224 1 95.9400024 50.4011994 13.6331997 2.2084501 6.88121 -1.6159901 -5.6411801 0
448 1 95.9400024 0.0542605 15.5765 2.68167 1.6025601 0.5869161 -3.52929 0
193 1 95.9400024 2.39553 14.2748003 1.32063 -1.31643 -7.0954099 -5.1039701 0
4064 1 95.9400024 2.0991499 17.0247002 1.3394001 3.86411 9.38447 6.57829 0
418 1 95.9400024 -0.295412 18.0025997 1.94302 -3.9532002 -3.4432299 -1.50121 0
98 1 95.9400024 5.27703 16.0508003 0.407193 -2.88057 5.7024398 1.08788 0
454 1 95.9400024 6.96769 15.9190998 3.26595 1.6629501 -0.409703 0.792966 0
648 1 95.9400024 10.5138998 17.5855007 0.7070501 3.73052 2.2100999 2.1752501 0
675 1 95.9400024 10.0205002 15.1429997 3.12605 2.34883 -11.2390003 -1.19093 0
423 1 95.9400024 8.0233297 16.6664009 1.0057499 -1.8155101 -0.782204 -1.20901 0
3974 1 95.9400024 9.7962599 14.6373997 0.250539 -7.4826999 10.4694004 5.75176 0
3978 1 95.9400024 12.4021998 16.5048008 2.98858 -1.3576 -0.60185 -1.74343 0
4009 1 95.9400024 12.2300997 13.9189998 1.7502001 2.3057401 -4.1987901 1.05961 0
4043 1 95.9400024 14.8598004 17.4491005 1.3516001 1.87479 -0.500279 3.76616 0
171 1 95.9400024 14.4801998 14.5242996 2.80437 3.6334601 1.98263 -0.585818 0
3944 1 95.9400024 14.8885002 14.0368004 0.545572 -4.4698801 -2.8300901 -4.8083401 0
139 1 95.9400024 17.0037003 15.6473999 1.66228 9.8526802 -3.1029201 2.94118 0
4883 1 95.9400024 34.9933014 24.856001 9.3003798 -13.2557001 0.201203 1.64633 0
172 1 95.9400024 19.0926991 14.5177002 3.20751 3.37605 -0.666646 9.0326204 0
143 1 95.9400024 20.0284996 14.3961001 0.0084078 -7.5016399 -8.0983 -2.6454301 0
400 1 95.9400024 19.8022995 16.9673996 1.73167 -0.237923 -3.2056999 4.5920301 0
402 1 95.9400024 21.6313992 14.9530002 3.31268 -4.3119702 -9.1129198 4.9263302 0
2159 1 95.9400024 22.6660996 9.4370203 24.9743004 5.6992603 1.72118 -2.6779599 0
401 1 95.9400024 23.8792 16.2394009 1.7090301 4.9988298 2.5906 4.0893602 0
977 1 95.9400024 27.1930008 16.0419998 3.0357299 9.4914599 -5.8041802 -6.2355299 0
8176 1 95.9400024 28.0687008 -0.218046 0.474434 3.5988801 -2.1108501 -5.2673202 0
687 1 95.9400024 28.896 15.8851004 0.770948 10.9912996 -1.26116 -6.9801002 0
722 1 95.9400024 27.3775005 18.0105 0.122938 1.49225 3.2988701 -2.18992 0
5685 1 95.9400024 38.4544983 25.6096993 20.3913002 -0.695008 1.6294301 -2.87007 0
149 1 95.9400024 32.2677002 14.3055 2.1673 -3.4897101 0.116516 7.9052902 0
3922 1 95.9400024 30.7733002 16.5249005 3.1680701 7.7728601 6.9530302 6.93401 0
469 1 95.9400024 33.1786003 16.9349004 1.76822 -1.14024 4.07936 0.432342 0
1532 1 95.9400024 39.7044983 25.0349007 17.5121994 8.6928501 -6.4517002 -1.6209101 0
407 1 95.9400024 34.220501 15.6890002 3.63355 5.43047 -3.21682 -2.40153 0
3964 1 95.9400024 39.419899 15.7543001 0.724739 4.2153001 0.196463 0.88405 0
261 1 95.9400024 7.0530801 -0.427813 1.23918 9.1162796 -8.8825502 -1.27688 0
3956 1 95.9400024 36.5066986 15.9206 1.7995301 -6.6436401 -3.27296 4.22297 0
186 1 95.9400024 38.5262985 17.7325001 2.85883 -4.7747302 -5.0184999 -5.1402602 0
1728 1 95.9400024 45.8580018 25.3306008 16.2021999 -0.970541 9.5292197 3.2637301 0
667 1 95.9400024 43.1924019 17.4347992 2.25175 -8.1651297 -3.9817902 1.09281 0
131 1 95.9400024 7.2058802 12.4397002 -0.128903 -5.5617299 -3.0527 -2.1860199 0
187 1 95.9400024 45.3568001 15.4294997 2.1474299 -3.7583101 -0.556924 -0.162174 0
4026 1 95.9400024 47.4313011 16.5312996 3.19576 2.43451 10.4317999 0.128776 0
2417 1 95.9400024 25.0475998 8.3049202 25.3705998 2.0186501 -0.739261 -3.7320001 0
4028 1 95.9400024 49.7060013 16.0263004 1.9205102 -0.143317 -3.0721099 -2.1082399 0
190 1 95.9400024 49.7132988 15.3024998 4.25597 11.0566998 -7.09377 4.0871501 0
479 1 95.9400024 49.6819 17.8633004 4.8368101 7.6599002 0.179062 1.14791 0
3777 1 95.9400024 1.8032201 19.6830998 2.1754799 5.7326598 0.69545 4.0666599 0
3812 1 95.9400024 0.282055 19.4783993 4.22122 10.0534 0.705314 -8.3999796 0
731 1 95.9400024 0.898286 22.1523991 -0.202728 -0.984769 -3.4948499 -0.968675 0
736 1 95.9400024 5.16781 17.5470009 2.58285 3.1751101 -5.8009501 2.69606 0
196 1 95.9400024 7.2276402 18.6310005 2.73049 2.7447801 1.23578 -5.87432 0
4006 1 95.9400024 6.45012 21.2698994 2.33708 3.0503099 -10.1915999 1.74175 0
195 1 95.9400024 6.0352602 18.5305004 0.320396 2.10287 -2.67343 -6.1974201 0
166 1 95.9400024 10.1167002 20.3463993 1.1252 -1.0579799 -2.67939 -8.97398 0
226 1 95.9400024 8.4568901 20.4776001 3.8010199 -3.53156 -5.6614199 0.0159095 0
676 1 95.9400024 11.3072996 22.7425003 0.673872 -4.5142799 -2.5960901 2.12094 0
201 1 95.9400024 8.4229098 22.2117005 0.165999 -3.6462801 10.1018 4.84658 0
713 1 95.9400024 12.6282997 18.8918 1.24263 4.62255 3.5653601 5.2658901 0
3787 1 95.9400024 17.6959 18.2005005 0.6853251 -8.3623304 -2.5207401 -4.14079 0
140 1 95.9400024 17.0347996 21.0888996 2.29053 -6.67625 -7.37607 8.4427996 0
168 1 95.9400024 15.4527998 19.6802006 0.197999 0.240628 2.8873502 -4.9060202 0
427 1 95.9400024 16.6347008 18.8537006 3.10198 -3.09074 1.04329 -1.9131402 0
426 1 95.9400024 19.1765003 19.1504994 2.8208201 3.01757 -2.92463 -6.4860502 0
653 1 95.9400024 21.8416996 18.5424996 1.78229 -11.4540997 5.83739 9.7847796 0
686 1 95.9400024 24.2724991 18.4363003 0.726211 -0.827426 5.9572102 -1.30252 0
4086 1 95.9400024 26.3078995 20.4547997 1.41606 12.6035004 -10.2764998 -0.699402 0
503 1 95.9400024 28.7206002 18.3861008 2.7929499 5.7014599 2.02496 3.9326702 0
4371 1 95.9400024 28.8113995 21.5377999 2.2118001 -3.54742 3.6712501 -4.19486 0
470 1 95.9400024 32.9870988 20.0300999 0.425662 -0.742392 -0.54104 -8.2148895 0
467 1 95.9400024 31.1159992 17.7201996 0.66062 0.0613556 -1.36071 -2.9294 0
468 1 95.9400024 30.9321004 19.7588997 2.36232 12.1271 -1.6577801 0.456988 0
2358 1 95.9400024 38.0900993 4.45191 25.0030994 7.23347 -4.6841998 -3.84025 0
436 1 95.9400024 35.1376 18.2996006 -0.379767 -6.8878698 5.9818502 -0.342799 0
471 1 95.9400024 33.8667984 19.844101 2.83212 -1.95314 -5.3265 -5.3126402 0
3886 1 95.9400024 17.1075993 8.3646698 0.298774 -3.35921 -3.0215299 1.7469701 0
185 1 95.9400024 37.915699 18.2429009 0.412668 12.0663004 -1.89676 -3.32828 0
4058 1 95.9400024 39.6007004 20.1439991 1.55891 0.170827 14.4252005 -4.5363899 0
4088 1 95.9400024 37.9828988 20.857401 -0.0166766 5.6208701 2.24999 -12.9538002 0
157 1 95.9400024 42.5536995 20.0715008 1.06741 -7.19873 -0.971197 8.1314297 0
729 1 95.9400024 40.8380013 22.3824997 0.619713 10.3558998 3.16643 13.2672997 0
443 1 95.9400024 41.8009987 21.7977009 2.90802 -3.68411 16.3374996 -1.82507 0
4056 1 95.9400024 45.6178017 18.4057007 1.49288 5.4325199 3.6197 -3.79792 0
4377 1 95.9400024 44.4445 21.0969009 2.31144 -1.22333 -4.4035101 4.1483898 0
156 1 95.9400024 47.2663994 20.5865994 1.64071 -1.01722 5.2870302 0.370013 0
735 1 95.9400024 51.1221008 21.2003002 1.46663 1.69097 -6.2532501 10.1928997 0
4892 1 95.9400024 48.9404984 18.6700993 1.90735 3.75961 -6.35358 6.7320199 0
446 1 95.9400024 49.3997994 20.5967007 3.5595601 5.82161 9.2239704 9.2169504 0
450 1 95.9400024 1.18125 22.7978001 2.0113399 4.3975301 4.35357 1.2535 0
4066 1 95.9400024 1.39258 24.9531002 0.779293 2.0241699 -3.52143 -4.6891399 0
276 1 95.9400024 31.7133999 -0.495743 8.3776398 10.1731005 -7.7051802 -11.9716998 0
4036 1 95.9400024 3.81438 21.5779 1.41679 -10.5579005 -1.79376 -6.9138498 0
7940 1 95.9400024 4.0422502 24.3103008 1.94014 6.9201798 4.28336 -3.2163899 0
197 1 95.9400024 6.2547898 23.7577 1.07038 3.88871 -0.407249 0.945357 0
198 1 95.9400024 9.5211497 22.7639008 2.87971 13.3429003 2.4161301 0.175881 0
3976 1 95.9400024 9.1998501 24.4246998 0.6857381 3.66715 -10.2531004 -0.138721 0
2106 1 95.9400024 40.9847984 3.4024899 25.1924992 5.8147898 5.0259299 1.1538 0
4041 1 95.9400024 12.4582005 21.3645992 2.43295 -3.59845 2.0011599 -8.8553496 0
199 1 95.9400024 12.4275999 23.9267998 2.4556899 3.84273 -0.367762 4.8502998 0
203 1 95.9400024 15.2586002 25.0272999 0.737157 -0.6027341 1.3933801 4.34972 0
4393 1 95.9400024 17.2245999 23.9060002 2.2748699 1.30328 -2.25051 4.3527498 0
202 1 95.9400024 14.7748003 22.3274994 0.715412 -1.08947 -2.41502 10.9896002 0
712 1 95.9400024 21.1219997 21.3752003 1.73281 9.1459599 -5.88097 -3.5758701 0
33 1 95.9400024 47.5779 4.50281 0.201654 2.62799 -0.085126 -7.61899 0
205 1 95.9400024 20.4559002 23.8558006 2.1079199 7.73872 5.6652799 -4.57123 0
5321 1 95.9400024 12.7870999 1.06582 12.7966995 -3.0451901 3.0343101 1.47903 0
498 1 95.9400024 23.9144994 21.9575996 0.640938 -6.8164001 10.4738999 6.2316699 0
174 1 95.9400024 23.0301991 24.1252995 1.98185 -4.3662701 1.76731 -10.9592 0
55 1 95.9400024 33.7327996 10.5621996 0.556261 -9.1785002 0.641597 1.10234 0
4113 1 95.9400024 24.7766991 22.4976006 3.2054701 7.98948 -7.2034602 1.91051 0
4115 1 95.9400024 28.594801 24.3994007 1.1607 -5.5033899 0.326713 -0.137014 0
464 1 95.9400024 26.5991993 23.0443993 0.264651 -0.997521 -2.1252301 -0.29713 0
243 1 95.9400024 31.1263008 24.2950001 0.992386 -0.831189 7.8052602 -12.0130997 0
501 1 95.9400024 30.0293007 21.8542996 4.45502 -0.287525 2.4298799 2.8332801 0
4119 1 95.9400024 32.0702019 22.4062996 2.4788699 -12.526 -2.27123 5.25844 0
7704 1 95.9400024 33.7249985 23.4862004 0.602158 9.0844002 2.90109 7.5006099 0
504 1 95.9400024 36.0056 22.5646 2.15972 0.0672404 -7.6061301 2.2397499 0
218 1 95.9400024 38.5050011 24.5301991 0.5153221 1.82576 7.1345601 -2.4053099 0
3550 1 95.9400024 43.3861008 23.2626991 0.344237 -1.07411 2.3464899 -4.4534898 0
188 1 95.9400024 43.7308998 23.9298992 2.69992 -2.66359 1.03949 -1.2287901 0
7962 1 95.9400024 40.9370996 24.2031002 2.2558401 0.206825 4.42909 -0.0847938 0
255 1 95.9400024 46.1846008 22.9333992 0.50944 -1.7862801 3.3174701 0.735647 0
5869 1 95.9400024 17.6774006 -0.248697 20.8120003 -3.30866 -3.13041 1.25526 0
1026 1 95.9400024 1.03288 -0.29364 18.2640991 -3.59304 -4.2164602 19.4750996 0
225 1 95.9400024 50.7649002 23.7269001 0.0908306 -4.6124201 -0.375124 -10.4698 0
732 1 95.9400024 48.8194008 23.0921993 1.6558301 3.25 -0.052683 7.5553899 0
222 1 95.9400024 50.8005982 24.3416004 2.93557 2.17015 0.464672 0.911785 0
4863 1 95.9400024 -0.248958 3.23205 3.09184 0.0944444 -0.0336823 3.5400701 0
575 1 95.9400024 1.9095 1.42439 5.23036 5.43959 -2.92553 1.6180201 0
771 1 95.9400024 3.4997201 3.3749299 6.3509302 -6.4345002 1.3085801 5.1115298 0
2 1 95.9400024 0.504775 3.7014401 6.17344 -4.0096102 0.340079 -7.7687803 0
4578 1 95.9400024 4.5061698 1.81529 4.0440102 0.0337162 -0.118616 4.8481798 0
258 1 95.9400024 4.6402502 3.0808599 8.4341698 0.381925 10.9055996 -1.21698 0
262 1 95.9400024 7.1414199 3.7444 3.82442 -5.9101602 3.57072 2.2585001 0
549 1 95.9400024 6.4110499 1.86693 6.0969601 -7.2184701 -4.24329 -13.4469004 0
520 1 95.9400024 7.5108099 0.955888 3.71929 -0.0012753 2.9273702 -0.198384 0
775 1 95.9400024 10.9780998 1.27753 4.7422099 -2.0383201 -11.9357004 -1.85412 0
405 1 95.9400024 34.3016014 14.9450998 -0.156416 2.2277999 5.9236302 -3.60639 0
328 1 95.9400024 13.5030003 1.8172801 4.4334302 -0.0971183 3.21487 4.4370899 0
5322 1 95.9400024 12.3058996 0.871849 7.2283802 4.6863098 -0.567029 3.60813 0
5099 1 95.9400024 16.3920994 0.864219 5.1070499 3.17606 2.89847 2.7104299 0
556 1 95.9400024 17.7362004 1.27379 6.9731202 -0.842433 -7.1881599 -4.8646998 0
811 1 95.9400024 15.6177998 3.0371201 6.1334 2.7918701 4.86754 3.2986901 0
1530 1 95.9400024 42.7835007 25.1567001 11.8497 -1.2532801 -9.92451 8.6044598 0
815 1 95.9400024 20.2483006 2.6431101 5.5806198 -1.60085 -5.6866598 -5.6684098 0
4815 1 95.9400024 19.1814003 0.470405 4.7540698 -4.84515 -0.139866 -5.4961 0
530 1 95.9400024 22.9538002 1.69591 4.1328402 5.45612 -9.6753598 2.1275301 0
338 1 95.9400024 25.8687992 2.01599 3.93662 5.6745501 -1.36183 6.1037798 0
534 1 95.9400024 28.1399002 2.0236001 3.6609299 -3.26739 -3.0425799 -5.1066198 0
3740 1 95.9400024 46.7529984 13.0909004 -0.293718 6.2874098 2.2721701 1.02502 0
6169 1 95.9400024 40.1935997 22.8335991 24.8679008 -4.6444602 -1.4086501 4.4629698 0
4344 1 95.9400024 30.8568994 1.6816601 3.8777002 -3.0447199 3.4594801 -2.7823999 0
4851 1 95.9400024 33.0063019 0.30015 5.5676799 -0.265942 0.288926 4.9594798 0
531 1 95.9400024 30.3281002 1.85004 6.48175 4.50702 -1.61788 8.8139696 0
277 1 95.9400024 33.304699 2.8747202 4.8077402 -2.19471 -0.235687 -4.1290999 0
20 1 95.9400024 33.599701 1.49712 2.9371 -2.2114401 0.382299 0.0142192 0
4599 1 95.9400024 35.354599 1.53203 6.3125601 -1.51825 -1.19267 1.0256701 0
571 1 95.9400024 38.7368012 1.7110601 3.4210701 4.6366401 5.1378999 0.881096 0
603 1 95.9400024 41.0611992 3.38569 2.98875 -1.88966 0.0629938 2.1183701 0
3933 1 95.9400024 42.784401 1.84737 5.1299701 -5.6715999 2.2009499 6.0890698 0
4347 1 95.9400024 40.8111992 0.416734 5.7971702 -6.2240501 2.7794099 -3.80075 0
316 1 95.9400024 40.1379013 3.22771 5.8680902 6.87741 1.5919501 3.6617999 0
543 1 95.9400024 47.8247986 2.4135001 4.4165001 8.9131204 -3.6612001 4.5117202 0
284 1 95.9400024 45.5326996 0.126858 4.6410299 -4.5565601 6.8660402 -0.0679619 0
27 1 95.9400024 47.2284012 2.48612 1.87699 2.49187 -2.75686 9.7062798 0
801 1 95.9400024 45.9040986 3.02722 6.0225101 -1.61044 7.4428401 0.808004 0
576 1 95.9400024 50.1823998 2.11709 5.25137 -6.6100798 -1.98397 -10.2116003 0
87 1 95.9400024 37.2913017 13.6021004 0.144728 -1.35236 -0.989512 3.46068 0
290 1 95.9400024 1.61908 5.6440201 5.0770402 -9.2208901 -5.1292 -0.567584 0
897 1 95.9400024 3.7977801 5.7600498 6.62533 -4.6001101 0.250466 -0.586497 0
548 1 95.9400024 4.40308 5.0485501 4.07125 -8.46521 -3.62745 1.31018 0
613 1 95.9400024 6.0114198 4.2879601 6.7532201 3.7237599 2.47786 -6.4945698 0
550 1 95.9400024 8.9777604 4.6072502 5.7309599 0.5878811 2.1780601 5.4275899 0
618 1 95.9400024 6.9554702 6.54632 4.3737402 -2.7909 7.1217799 -13.4077997 0
4582 1 95.9400024 11.6785002 4.3225799 4.7361899 -1.3169301 4.14921 2.5719099 0
103 1 95.9400024 10.4349003 6.7006402 4.5427499 -3.0919399 -4.2933798 4.0145702 0
843 1 95.9400024 18.1518002 3.3306 4.2812801 -4.5053902 -0.0903946 -1.43162 0
808 1 95.9400024 14.4640999 6.1329398 7.0025501 -0.561374 -14.6289997 -5.1799002 0
295 1 95.9400024 14.0389004 4.90694 4.6880203 -0.530602 -4.1199002 7.2678399 0
4842 1 95.9400024 17.1124001 5.8530102 5.9099698 -2.2523601 0.174139 -7.4331899 0
529 1 95.9400024 20.9188004 4.6052099 3.47365 -8.9176798 -14.4607001 2.90043 0
141 1 95.9400024 18.0589008 5.8136502 3.50054 -3.7997601 0.49297 -1.34383 0
619 1 95.9400024 20.0587997 5.5560999 6.1884499 4.4753199 -3.94167 -5.80689 0
302 1 95.9400024 23.8733998 4.0559702 3.1926501 -6.0018902 1.67201 9.3589001 0
331 1 95.9400024 25.1889 3.8152499 5.4787202 11.4912005 -7.1968598 2.7409599 0
336 1 95.9400024 23.0226002 6.1689701 4.6176 3.79106 9.4096298 5.2950301 0
46 1 95.9400024 26.3640003 4.47263 2.98415 -2.1201301 1.76825 5.5618801 0
564 1 95.9400024 27.7609005 4.2161999 4.9310498 -4.4907198 10.0129995 -4.1559701 0
597 1 95.9400024 25.7847004 6.4484201 5.0289102 -3.07901 -3.3118601 1.76001 0
596 1 95.9400024 28.2672997 7.1602302 4.3088398 -3.1452999 0.395233 -5.7443199 0
85 1 95.9400024 30.6749001 6.5462098 3.3189399 9.3525601 -7.62992 -4.5295902 0
56 1 95.9400024 30.5501004 4.1712098 5.1168799 -1.82777 -5.4435902 3.1020801 0
567 1 95.9400024 32.9594002 5.7838898 5.6624098 -1.87784 12.3594999 7.4473 0
540 1 95.9400024 35.8153992 4.88513 4.4823098 -6.4524498 -8.5986605 1.9909102 0
1107 1 95.9400024 34.5852013 4.1411901 6.89425 -1.93541 -1.6003601 4.08496 0
57 1 95.9400024 34.0816002 6.1601701 2.9149002 2.1789899 5.8438502 7.8232899 0
536 1 95.9400024 37.2310982 3.3527999 6.2495098 -1.64703 5.4095502 -9.1452599 0
601 1 95.9400024 38.2644997 4.1208501 4.0556798 0.534248 -4.0439701 4.2841601 0
825 1 95.9400024 38.5144005 6.6429701 5.3353601 1.06757 0.0418489 -0.570697 0
570 1 95.9400024 42.6430016 4.4251399 6.2102599 -1.66125 -3.1239801 0.542125 0
317 1 95.9400024 43.859501 4.46698 3.7815299 -1.7290601 2.3392 3.00757 0
858 1 95.9400024 41.1682015 5.6499 4.3789702 3.95682 0.931455 -4.69172 0
315 1 95.9400024 46.6679001 5.1761198 4.1426601 -7.94907 -5.6851101 -3.2460201 0
61 1 95.9400024 45.6445999 5.50456 6.3354302 1.3693301 -9.87887 -0.771809 0
318 1 95.9400024 46.2809982 7.90764 4.4849801 11.5983 3.9161502 -0.718811 0
579 1 95.9400024 50.858101 5.3491702 5.27315 2.64094 5.6075101 -8.1327696 0
859 1 95.9400024 48.5284996 4.6084099 6.1361799 3.70032 -0.445671 -1.70944 0
578 1 95.9400024 1.4124301 9.9066296 2.85463 -5.9686298 -6.4993801 -8.6307097 0
67 1 95.9400024 -0.349946 7.7603302 4.1128502 -2.0922999 1.9891 1.45312 0
320 1 95.9400024 2.4737201 8.2401896 5.3701301 -1.12912 12.8942004 9.7923002 0
385 1 95.9400024 0.346046 9.8740902 5.21138 11.5627003 -2.5778401 -12.7694998 0
421 1 95.9400024 2.99826 10.9959002 5.5362201 3.1970999 0.900905 3.0884299 0
582 1 95.9400024 5.2262001 8.2181502 4.63727 -5.7529702 3.55425 3.99405 0
355 1 95.9400024 3.8123601 9.9512902 3.30954 4.30965 6.6409402 -1.23387 0
388 1 95.9400024 6.21067 10.6063004 5.1982598 5.2688799 5.7462602 3.61635 0
611 1 95.9400024 4.3408399 8.9614898 6.9726502 -0.280303 2.3257001 2.57178 0
390 1 95.9400024 7.7719102 8.9412404 3.57457 2.6610501 8.0683203 -1.6111701 0
422 1 95.9400024 10.5809002 7.8852702 7.2355099 -6.43364 -7.6683998 -1.75299 0
358 1 95.9400024 8.2205 8.5495301 5.89216 0.79927 -1.72726 -6.6764002 0
836 1 95.9400024 9.1697397 10.6356001 6.97013 -4.6710301 12.0191002 -7.66994 0
361 1 95.9400024 13.6012001 9.6437903 3.72892 -4.9896498 -1.54082 -1.46715 0
70 1 95.9400024 12.8620996 7.7902398 5.5977898 5.5167599 1.51124 0.543833 0
391 1 95.9400024 12.3493996 10.4033003 6.8769698 -6.0286398 2.0215099 0.7894351 0
3882 1 95.9400024 15.8326998 7.7392102 4.85984 -9.2116299 -3.69574 5.7528601 0
335 1 95.9400024 14.8939 9.85711 6.4275599 4.0462198 0.731909 4.26126 0
334 1 95.9400024 20.7535 7.3009901 3.9774202 -10.4476996 -1.90855 3.2731099 0