ITEM: TIMESTEP
0
ITEM: NUMBER OF ATOMS
500
ITEM: BOX BOUNDS pp pp pp
-7.66608 11.1900997
-7.6691499 11.1931
-7.7435699 11.2675991
ITEM: ATOMS id type mass x y z vx vy vz StructureType
3 1 58.7099991 -5.66782 -6.0678101 -6.5815101 0.0394436 10.8410998 2.00701 0
104 1 58.7099991 -3.61832 -5.66888 -5.4671202 -5.6059799 4.6349302 0.524017 0
201 1 58.7099991 -0.947172 10.3192997 11.3032999 -4.6296602 -3.07833 6.5899401 0
204 1 58.7099991 -0.10301 -6.3575201 -6.4478698 -10.3185997 0.289619 -2.1194899 0
203 1 58.7099991 1.61271 -5.3087201 -7.6879502 7.9029398 -6.00634 -11.5073004 0
202 1 58.7099991 2.0687499 10.9857998 -4.1942401 -8.3542299 2.12149 4.1977801 0
304 1 58.7099991 4.47644 -7.5046001 10.4847002 0.839731 -1.74983 -11.2390003 0
303 1 58.7099991 5.8509002 -5.4640899 9.8706904 -4.4376302 -8.7222405 13.8086996 0
404 1 58.7099991 6.8055201 -5.2264099 -7.0630298 0.679527 -7.0423899 -16.4911003 0
4 1 58.7099991 -7.5448799 -5.6813002 -5.1652799 -5.2390499 0.137122 -4.0903101 0
403 1 58.7099991 8.9512998 -6.1834302 -6.28825 6.6222101 -2.6313901 8.17031 0
22 1 58.7099991 -4.84119 -3.6739199 -5.39884 3.76474 1.9845902 -3.76509 0
23 1 58.7099991 -5.8043399 -1.58346 -6.5188699 2.19396 11.7905998 4.994 0
24 1 58.7099991 10.9137002 -2.0783999 -4.9149098 1.4627 1.0889601 -0.536903 0
121 1 58.7099991 -4.5078101 -4.1487899 11.3394003 -10.2872 3.6282101 5.3024402 0
122 1 58.7099991 -2.1585901 -3.87337 -5.9695002 -5.8312702 4.5418902 -13.2770004 0
124 1 58.7099991 -3.20438 -1.6764701 -5.8290701 9.3229103 -5.0778399 -3.0544801 0
221 1 58.7099991 -0.542295 -4.3650198 -7.7515702 -10.8266001 0.152882 -2.5507601 0
224 1 58.7099991 -0.520386 -2.05023 -6.7938299 0.414688 7.8820902 -5.4259601 0
222 1 58.7099991 0.134322 -4.0595999 -5.46169 -2.1134601 -6.91855 1.87977 0
321 1 58.7099991 1.84443 -2.98645 -7.47222 7.5035501 7.60425 5.1665602 0
324 1 58.7099991 1.45695 -1.0825 -3.96746 -8.9793396 0.321284 1.61601 0
322 1 58.7099991 4.9368902 -3.7895401 -6.3362899 1.36113 8.3591204 -2.6105299 0
323 1 58.7099991 3.99256 -2.25754 10.9368 -4.4555502 -0.113125 5.94835 0
424 1 58.7099991 8.1066599 -2.3236599 -6.3467698 3.3208399 -4.8389502 6.5809398 0
21 1 58.7099991 -6.7291799 -3.7599399 -6.38866 -0.537742 -0.82905 11.7328997 0
422 1 58.7099991 9.4473601 -4.09408 -5.99362 -0.0259847 0.613477 -4.75629 0
423 1 58.7099991 10.5656996 -1.50684 -7.37075 -3.3938501 -9.8580304 -4.56808 0
42 1 58.7099991 -5.0692 0.213354 -5.7853999 -4.4751902 -0.0118174 -0.0877226 0
142 1 58.7099991 -2.56845 0.247366 -7.0950899 -4.4309402 -2.4877301 -1.69747 0
144 1 58.7099991 -3.29299 1.63247 -5.5229998 -5.4626398 5.96105 0.356901 0
241 1 58.7099991 -0.632792 0.52637 10.8447 4.97294 -5.1360602 6.5032101 0
242 1 58.7099991 1.10016 0.1385 -6.4063802 -8.6714297 -2.2918501 7.2683702 0
341 1 58.7099991 2.96401 -1.47377 -5.9570398 0.740802 -0.566133 0.412964 0
243 1 58.7099991 1.5084701 2.09284 -7.72683 10.8860998 -16.0886002 -4.93991 0
342 1 58.7099991 5.7405401 -0.718912 10.0173998 1.53921 3.7335899 -10.0289001 0
442 1 58.7099991 10.0094996 0.282227 -5.5438199 -3.27193 3.4644101 1.98558 0
44 1 58.7099991 -6.8808098 1.84996 -6.3323898 3.91237 -5.5239301 1.7564401 0
62 1 58.7099991 -5.5247598 3.58721 -5.5876599 6.9296198 -1.80443 6.0476499 0
143 1 58.7099991 -1.39638 2.54614 -7.3062801 4.9323702 10.9554996 1.8181 0
161 1 58.7099991 -3.8473102 4.2705302 -6.7446199 -1.1793701 -9.99924 8.0953798 0
162 1 58.7099991 -1.39407 4.01859 -5.5793901 -6.1052899 -2.4814 -12.1170998 0
244 1 58.7099991 -0.436748 1.92415 -5.4110999 3.5767401 2.1568799 -4.5323301 0
262 1 58.7099991 1.17296 3.3569501 -5.8589002 -3.7095201 2.5984001 1.98717 0
344 1 58.7099991 2.85514 1.09351 -5.5799899 -4.4313402 14.8114004 1.7828601 0
361 1 58.7099991 2.7427001 4.3785801 9.7197199 7.5324798 -3.44682 -10.8763 0
362 1 58.7099991 3.8385401 4.7126999 -4.25985 8.0931101 -6.0072498 2.93392 0
444 1 58.7099991 5.8761702 2.9884 -6.6081901 -0.4876 10.3850002 1.95379 0
461 1 58.7099991 6.81566 4.79455 -7.23316 -0.0702613 -5.4857102 8.0618801 0
462 1 58.7099991 10.1078997 2.5989399 -5.0751801 -2.65675 1.08201 2.90323 0
64 1 58.7099991 -7.5405302 5.5555401 -5.1490502 -3.8007701 0.935345 -3.6816101 0
82 1 58.7099991 -6.1020002 7.5959902 -5.50348 6.1024499 10.9860002 2.3062301 0
164 1 58.7099991 -3.9839302 6.5067902 -5.7773199 -8.6131096 -9.5596504 1.2914 0
182 1 58.7099991 -1.94898 7.6019402 -5.4849901 0.996967 2.7105 -0.955667 0
264 1 58.7099991 0.0723764 5.99783 -4.7343998 -11.3998003 4.42062 6.5242701 0
282 1 58.7099991 2.12149 8.75107 -6.4640999 0.90591 2.60881 -4.4273501 0
364 1 58.7099991 2.98773 5.36866 -7.4003701 3.5588 1.9254 -5.9176602 0
382 1 58.7099991 7.0787501 7.1437302 -6.9569898 8.6117802 11.9554996 -7.27771 0
464 1 58.7099991 8.07131 6.43959 9.92169 4.90058 -7.64888 -1.26453 0
482 1 58.7099991 8.7072401 6.3358898 -5.0954499 9.42729 -5.1399999 11.639 0
2 1 58.7099991 -5.5423599 11.033 -4.9159598 3.83887 -4.4172201 1.53885 1
83 1 58.7099991 -5.34126 9.3962097 -7.2037602 -4.0193901 -2.4880901 2.96965 0
102 1 58.7099991 -2.3611801 11.1522999 -6.0732098 1.77635 0.296677 2.6053901 0
184 1 58.7099991 -3.9311 9.0714102 -5.3502798 -4.89291 5.1480699 3.85685 0
284 1 58.7099991 0.410695 10.5595999 -5.7122102 0.974362 4.2335 -2.2757499 0
384 1 58.7099991 4.40555 9.0130701 -6.2148299 3.3058701 -13.7620001 -10.8943996 0
302 1 58.7099991 3.84814 -6.38942 -5.2291098 -2.7970701 5.6399398 1.5676301 0
383 1 58.7099991 6.2742601 8.6722203 11.0165997 -8.2105703 -3.5938301 9.35042 0
484 1 58.7099991 6.5810499 8.5352001 -4.88093 -8.3520699 -1.5948301 5.4684601 0
402 1 58.7099991 6.1513801 -7.5180998 -5.9267202 1.93978 1.00109 -12.4206 0
84 1 58.7099991 -7.4357 9.8090401 -4.9604702 -0.313393 -4.2708998 -7.3572698 0
7 1 58.7099991 -5.2811599 -5.44096 -3.39907 3.89567 1.5230201 3.1658199 0
8 1 58.7099991 10.8742 -5.4474602 -1.93616 -2.3810401 3.36378 -1.08512 0
105 1 58.7099991 -3.2290599 -7.4149699 -3.4906299 3.4004901 -4.6712899 6.0546498 0
107 1 58.7099991 -1.37209 -5.1504502 -3.9154602 4.7473698 1.66264 9.8888598 0
108 1 58.7099991 -2.99951 -5.7604099 -1.96669 -0.943896 -1.70793 0.541924 0
208 1 58.7099991 -0.029472 -5.3975802 -1.82001 2.5504799 1.88261 -0.220264 0
207 1 58.7099991 0.991012 -5.9155698 -4.0749102 -5.6550799 2.8762702 6.0926199 0
308 1 58.7099991 2.3899601 -4.84799 0.0275706 -4.03269 12.5516005 -2.57863 0
307 1 58.7099991 5.1245098 -4.49226 -4.2133498 0.674002 2.0545399 4.6321602 0
408 1 58.7099991 8.1978903 -4.8374701 -1.89698 -8.7362805 5.24013 -0.6711141 0
407 1 58.7099991 9.64431 -6.0970998 -3.96013 -8.3333902 -0.703632 -0.333172 0
26 1 58.7099991 -4.9193102 -3.6695099 -2.0403299 6.1378899 4.7279601 -0.5391881 0
27 1 58.7099991 -5.4306798 -1.9748502 -4.1076102 -2.6595199 5.9569602 5.9320798 0
125 1 58.7099991 -3.08898 -3.5240801 -3.69468 3.4817 -0.68845 0.389721 0
126 1 58.7099991 -1.96051 -3.5709 -1.4478101 -2.1960499 -6.75066 0.0393376 0
127 1 58.7099991 -1.31395 -1.50264 -3.2997701 13.5605002 4.2130299 8.19771 0
128 1 58.7099991 -3.4724 -1.4315501 -1.99174 3.0859599 -1.6782 5.1353698 0
225 1 58.7099991 0.147784 -3.3267501 -2.97557 5.17278 5.3274002 -5.4270401 0
228 1 58.7099991 0.142726 -2.23173 -0.988607 2.60478 -2.6482899 -3.90835 0
227 1 58.7099991 0.279338 0.599657 -2.9932002 1.23323 10.0546999 3.2992001 0
226 1 58.7099991 2.0257499 -4.3608198 -2.3973301 -8.3004303 -6.8350001 -1.0040801 0
325 1 58.7099991 2.6224001 -4.3564301 -5.4252801 4.1991201 14.5548001 -8.0798998 0
328 1 58.7099991 4.7395301 -1.15116 -0.22246 8.3092299 -4.5443001 -0.101836 0
326 1 58.7099991 6.4684901 -2.5460601 -2.5692201 11.4743004 1.7403701 -5.0072298 0
327 1 58.7099991 3.95269 -2.8525902 -3.02932 8.0489302 -3.0599999 2.4538 0
425 1 58.7099991 7.3450399 -4.3832202 -4.2300601 7.0036998 4.7683501 0.95075 0
428 1 58.7099991 7.5903201 -0.16622 -2.0053301 14.9715996 -8.0774698 -7.5282202 0
25 1 58.7099991 -7.0854802 -3.87811 -3.82796 -3.6621001 5.02703 -0.257371 0
28 1 58.7099991 -7.1715298 -2.2358999 -2.2286 3.13817 -1.8491 -0.685623 0
426 1 58.7099991 9.52561 -3.7402301 -3.5035901 5.46064 -2.7715099 -7.8159099 0
427 1 58.7099991 8.7030602 -1.4850201 -3.86165 -0.902926 -2.79212 7.5900302 0
45 1 58.7099991 -7.29495 -0.14017 -3.5218101 6.2154698 -1.67668 2.21257 0
46 1 58.7099991 -5.5418301 -0.338363 -1.93458 3.53456 -3.5578699 2.36972 0
47 1 58.7099991 -5.29389 1.79565 -3.85139 -9.1398697 4.99547 -6.9716402 0
48 1 58.7099991 -7.5261202 1.63211 -2.10375 10.5355997 -5.23276 3.89224 0
145 1 58.7099991 -3.7309201 -0.225972 -4.0760398 7.5998202 0.911158 2.3896301 0
146 1 58.7099991 -1.65571 0.531538 -1.4575 -7.6476698 -8.0491896 4.98941 0
148 1 58.7099991 -3.8065901 1.35206 -2.07687 0.935965 -6.90264 0.319147 0
245 1 58.7099991 -1.25312 -0.125155 -4.9587798 -0.123155 -2.62795 -10.7493 0
246 1 58.7099991 3.03317 -1.40659 -1.63532 0.611971 -1.8274 -3.1927199 0
345 1 58.7099991 4.4810701 -0.7339821 -3.94485 4.93496 -14.7769003 -0.237023 0
247 1 58.7099991 1.91648 2.43309 -3.6199601 -11.3226004 6.1975298 1.72987 0
348 1 58.7099991 5.0097699 2.89378 -0.924095 1.30555 -0.563859 2.6056199 0
346 1 58.7099991 6.4377599 -1.02384 -4.21067 -1.3031401 -1.54663 -2.17359 0
445 1 58.7099991 7.93748 0.7929001 -4.9326402 6.9716202 2.0493901 -8.3206797 0
446 1 58.7099991 9.5671797 -0.166967 -0.727756 7.6352 0.351378 -0.752905 0
65 1 58.7099991 -7.2044802 3.40166 -3.8513 3.67573 6.6995101 -3.29565 0
66 1 58.7099991 -5.3596001 3.93398 -2.33862 2.84269 2.2806301 -1.09857 0
147 1 58.7099991 -1.8403 1.5510301 -3.5414901 2.5434301 0.129092 -2.6772001 0
165 1 58.7099991 -3.58125 3.3469401 -4.0886202 -4.8301702 3.4739201 5.7329998 0
166 1 58.7099991 -2.26439 3.7059 -1.7778701 9.95852 -3.12129 -0.251931 0
248 1 58.7099991 0.715537 2.12467 -1.19356 -1.81074 8.65516 1.24171 0
265 1 58.7099991 -0.422035 3.28372 -3.0941801 -3.6745801 3.1003399 -7.7846399 0
266 1 58.7099991 1.5216201 4.80266 -2.1982601 -3.74294 -6.5813198 -11.1896 0
365 1 58.7099991 3.90722 2.2232499 -3.39445 11.4513998 -3.9448 2.5580101 0
347 1 58.7099991 5.5053001 1.3545801 -4.8355999 -5.3850098 -2.36096 -8.1009502 0
366 1 58.7099991 5.8515602 3.5831101 -3.244 4.0908599 -3.1428299 -1.3311 0
448 1 58.7099991 7.4744902 2.43026 -1.77106 4.9615798 6.7483001 8.1518602 0
465 1 58.7099991 8.6276102 4.09975 -6.1525798 7.9512602 -1.94311 11.2062998 0
447 1 58.7099991 9.6835299 0.8251511 -3.3227999 5.5384898 -6.0274401 -3.46192 0
466 1 58.7099991 9.2550097 4.6429701 -3.3612399 -0.175129 5.4756098 1.9309602 0
67 1 58.7099991 -5.26752 5.4645 -4.13023 -2.8957702 -4.7894202 -4.4725099 0
68 1 58.7099991 -7.32232 5.6097899 -2.4789701 2.8429202 0.992073 -2.2269101 0
85 1 58.7099991 10.9889002 7.92793 -3.3122499 -1.15223 -3.7802 -2.95786 0
86 1 58.7099991 -5.7866502 7.3650098 -2.1556499 -10.4996996 -2.8899902 9.7407599 0
167 1 58.7099991 -2.1819799 5.62606 -4.1547499 1.02355 4.1535802 -12.4778996 0
168 1 58.7099991 -3.71839 5.5151401 -2.0322001 6.8017102 2.576 0.911116 0
185 1 58.7099991 -3.8202701 7.4928499 -3.5295601 -5.3001299 -1.90426 -6.5144601 0
186 1 58.7099991 -1.81673 7.8047199 -2.5651601 8.0386801 4.5929899 -2.8111 0
268 1 58.7099991 -0.6750191 5.5914402 -2.2462599 -2.7372999 -1.5552 -13.2195997 0
285 1 58.7099991 0.0998442 8.2777596 -4.3190098 0.142698 1.2058001 -9.1937704 0
267 1 58.7099991 2.3427301 6.3474302 -5.2262998 7.5242901 -0.742794 -4.3390799 0
286 1 58.7099991 0.98253 7.3316102 -2.19958 -7.46979 9.7455702 3.09797 0
368 1 58.7099991 2.84086 6.3092098 -0.535374 -7.75106 12.8114996 0.147317 0
385 1 58.7099991 4.8961102 6.52387 -5.6774602 -8.4152899 -0.714866 -8.9161502 0
367 1 58.7099991 6.8411698 5.7266302 -4.8762598 2.38556 -6.36868 -4.9896498 0
386 1 58.7099991 4.0798998 7.4121299 -3.0000401 -15.3558998 -8.76229 3.2288401 0
468 1 58.7099991 5.8252502 5.2449298 -0.7438661 -6.1643901 -9.6191702 -4.2333002 0
485 1 58.7099991 7.78963 8.1079998 -2.95103 3.97288 6.9421202 -1.74383 0
467 1 58.7099991 9.3937903 6.5643401 -2.3926599 12.4667998 -2.7674999 6.6672402 0
486 1 58.7099991 9.7047005 8.6990996 -1.53624 8.5209198 2.1345301 0.91601 0
6 1 58.7099991 -5.0952101 -7.25915 -1.79714 0.371318 -4.1963701 3.2815001 0
87 1 58.7099991 -5.0169902 9.3892899 -3.2374599 -1.25791 -3.50505 2.7693401 0
106 1 58.7099991 -1.04194 -7.5982199 -0.994326 -1.63273 0.617985 -1.66597 0
187 1 58.7099991 -2.0629699 9.5532904 -3.82074 6.8667798 0.862423 1.72445 0
188 1 58.7099991 -3.08462 9.6643801 -1.70267 7.13869 0.472777 -2.7869001 0
205 1 58.7099991 -0.7117991 -7.6282501 -3.4688101 -2.88321 -1.26204 -0.603962 0
288 1 58.7099991 -0.150709 9.49578 -2.03932 0.777642 -6.2804198 0.525086 0
206 1 58.7099991 1.81954 -7.5479398 -1.80611 6.3719902 0.447002 1.9660702 0
305 1 58.7099991 3.3357999 -5.7827101 -2.3536601 -8.1429501 0.110519 4.28754 0
287 1 58.7099991 2.96464 8.5960999 -4.2151799 0.7482201 0.715277 -12.2585001 0
388 1 58.7099991 5.33809 -7.1841898 -1.64907 -2.95374 -0.449777 -1.24244 0
306 1 58.7099991 5.8407402 -4.9098402 -2.0458601 1.64204 13.3100004 -5.9847102 0
405 1 58.7099991 6.81212 -6.4742298 -3.8424102 -5.1608 3.2567201 1.10089 0
387 1 58.7099991 5.0624499 10.0014 -3.7068999 -1.56258 9.2862902 -8.6896 0
488 1 58.7099991 6.5360599 9.8068896 -2.13849 -2.5149801 2.5962301 -8.2846699 0
5 1 58.7099991 -6.9029002 -7.1784701 -3.21748 6.10884 5.5981798 0.497055 0
406 1 58.7099991 9.2248097 10.6569996 -2.8968 -12.1046 2.6841901 -3.1947701 0
88 1 58.7099991 -7.1251402 9.6446696 -2.12147 5.6364999 -0.874917 1.8055001 0
487 1 58.7099991 9.0640802 9.04492 -4.64883 2.0007401 7.7067399 -1.38105 0
11 1 58.7099991 -5.2143798 -5.5401802 -0.267257 -6.28897 3.9960302 4.6194101 0
111 1 58.7099991 -1.45533 -5.7454801 0.304061 -0.813558 -1.64173 -1.85391 0
110 1 58.7099991 -1.8241301 10.9755002 1.68759 2.56614 -4.00632 5.2034702 0
211 1 58.7099991 3.0158501 -6.3903499 1.99695 1.2417801 10.5487004 -5.95718 0
212 1 58.7099991 -0.622495 -5.8156901 2.7354601 -5.3355999 6.3364201 -1.6016001 0
210 1 58.7099991 1.2504801 10.5717001 1.9882 -0.0400203 -7.4119702 2.5527401 0
311 1 58.7099991 4.70679 -5.8438602 0.50225 -1.82776 -2.5688901 4.64112 0
412 1 58.7099991 6.5450802 -4.8948302 2.72331 2.89215 -8.6735897 5.2412601 0
411 1 58.7099991 9.3825598 -5.0637999 -0.271754 0.603105 -6.0437799 6.8018699 0
29 1 58.7099991 -6.84828 -3.9788402 -0.432119 0.167371 7.5696402 3.2316201 0
31 1 58.7099991 -5.17733 -1.85807 -0.178544 -9.2287302 -7.3801398 3.4938901 0
129 1 58.7099991 -3.52753 -3.84975 0.230025 2.2964001 -6.1237798 -1.2581 0
131 1 58.7099991 -2.1946001 -1.79618 0.0014619 7.43996 7.84199 2.24278 0
130 1 58.7099991 -1.99981 -3.7826901 2.51981 -3.0116 -3.62975 -2.99471 0
229 1 58.7099991 -0.0241407 -4.0266299 0.908672 -3.7446599 -2.2696099 -11.5053997 0
231 1 58.7099991 2.90871 -2.85229 0.739201 -4.7707601 7.4203501 1.71801 0
232 1 58.7099991 -0.352155 -1.9363 2.0241699 2.5128701 -5.7358299 2.98123 0
329 1 58.7099991 1.5197801 -4.23701 2.5634699 -6.1071301 -7.1019902 -2.4679301 0
230 1 58.7099991 1.31048 -6.71174 4.08284 0.330077 -7.0826702 -11.0699997 0
331 1 58.7099991 6.50843 -1.90872 2.4888699 1.6173101 -8.9645396 6.9699402 0
429 1 58.7099991 6.7986799 -4.5903101 0.199487 11.2732 2.6799901 2.688 0
330 1 58.7099991 4.1528301 -3.82141 -0.837229 -3.6217301 -7.67521 -13.6615 0
432 1 58.7099991 4.9997202 -1.40175 4.5167299 -9.8695602 8.5927296 6.4215498 0
431 1 58.7099991 9.1686802 -2.2732401 -1.5857901 -3.2360001 0.346851 -3.9259502 0
430 1 58.7099991 8.5547896 -3.6217101 3.9238802 -9.9691496 -1.90179 6.90512 0
51 1 58.7099991 -5.7037301 1.4937201 -0.277939 -4.13658 -8.3425198 6.7259598 0
149 1 58.7099991 -3.6867001 0.282005 0.0359806 -2.2359901 1.60603 -3.0062399 0
249 1 58.7099991 0.242793 0.254332 0.289851 5.21663 1.1885099 -6.91773 0
252 1 58.7099991 -0.224335 1.48426 2.2356601 8.9832402 0.0512913 1.57216 0
349 1 58.7099991 5.4984198 0.988003 -2.24944 12.8111 3.8564702 -4.2549701 0
251 1 58.7099991 2.6912101 3.39482 -0.346925 5.7579298 0.235452 5.56737 0
449 1 58.7099991 7.1891699 0.758577 0.246739 3.8543502 -5.4839902 1.22807 0
351 1 58.7099991 7.38234 3.5641301 0.573107 -7.90932 -11.7838002 -1.30144 0
452 1 58.7099991 8.4895897 1.96974 2.6061299 2.99834 5.7019 -3.42466 0
49 1 58.7099991 -7.2012901 -0.592669 -0.225196 12.8539 -3.8357799 6.81634 0
450 1 58.7099991 7.9949002 -1.2945 0.63103 -6.4278698 -1.9307802 2.8434 0
69 1 58.7099991 -7.0860901 3.6083501 -0.5329 -4.0174098 2.54212 -7.3105002 0
52 1 58.7099991 -7.5664201 1.92242 1.30425 -7.3882499 -3.1384101 2.3053701 0
151 1 58.7099991 -1.86875 2.13779 0.407957 1.0125099 -5.8091102 2.19455 0
169 1 58.7099991 -4.0813999 3.5547099 -0.018688 0.380429 -3.5015199 -7.6761399 0
269 1 58.7099991 -0.357077 4.0109601 -0.246032 4.04214 0.435263 -1.72876 0
270 1 58.7099991 0.635847 3.78001 2.3865199 -7.16079 -8.75492 6.6441202 0
369 1 58.7099991 4.4163098 4.0095901 0.702746 0.816751 2.3287799 0.21342 0
469 1 58.7099991 9.5717497 2.03565 -0.306895 -2.0383999 2.8423 0.209647 0
370 1 58.7099991 5.6964998 2.6690099 2.1986699 -6.97572 -2.05212 -4.7550102 0
451 1 58.7099991 10.5100003 -0.378827 1.85833 9.3445597 -4.5308399 10.7472 0
71 1 58.7099991 -5.5418802 5.53792 -0.436444 6.03613 -1.95219 0.216248 0
89 1 58.7099991 -7.32621 7.6298199 -0.313584 -6.9726902 2.46222 2.56655 0
171 1 58.7099991 -2.4302299 5.41011 0.112899 1.2576801 -4.4087601 0.944011 0
189 1 58.7099991 -3.8625 7.2744298 -0.46101 -3.6631201 8.20084 -4.2286101 0
289 1 58.7099991 -0.429708 7.19695 -0.232699 6.67698 0.114195 -6.8957902 0
271 1 58.7099991 1.89728 5.4636898 1.62242 -5.88336 5.5769501 -10.8525 0
272 1 58.7099991 -0.644423 5.8966298 1.5509501 -2.2868099 -3.3367901 0.19414 0
290 1 58.7099991 1.7882 7.5247202 0.740362 2.9343802 -2.89213 1.81266 0
389 1 58.7099991 5.3366099 9.8006001 -0.281012 -4.1192799 5.5556002 6.1399298 0
371 1 58.7099991 6.93853 6.7373801 0.557892 3.4985399 -1.0309401 1.94722 0
489 1 58.7099991 5.97812 7.55088 -1.96222 -6.6585899 -9.1799898 -18.4846001 0
471 1 58.7099991 9.9227696 5.5893898 -0.723747 7.6749702 5.2879901 -6.7454801 0
91 1 58.7099991 -5.3901 9.6880703 -0.531162 0.801883 7.9274702 6.8376298 0
109 1 58.7099991 -3.4330399 -7.2886701 -0.0667572 -2.6341901 -1.3567 5.7038102 0
191 1 58.7099991 -1.74252 8.9509698 0.114791 -6.64813 4.5738502 4.0831599 0
209 1 58.7099991 0.446765 -6.7813401 0.514345 -3.69786 -0.901264 6.7117 0
292 1 58.7099991 -0.404827 8.4895897 2.14345 3.2196 -0.961582 -4.2318101 0
309 1 58.7099991 3.7513299 9.5754299 -1.65767 -0.874082 -6.2265 -5.8824302 0
291 1 58.7099991 1.2963901 9.7656098 -0.190805 -3.7305501 -1.19771 6.9503398 0
392 1 58.7099991 3.5629301 9.0928497 1.04921 0.914665 3.4326401 3.2615199 0
409 1 58.7099991 7.74049 -7.1942601 -0.875596 4.96592 -9.5552302 5.1753101 0
391 1 58.7099991 6.70014 -6.6961599 1.06095 0.310479 2.2360201 4.7007299 0
492 1 58.7099991 6.2476301 9.2489405 1.86549 1.9098002 4.4755602 -0.93564 0
9 1 58.7099991 -6.8589302 -7.1669698 -0.44287 6.3347302 4.1339698 1.1411099 0
491 1 58.7099991 9.9442196 10.9589996 -0.334653 0.0537906 -0.089287 5.66922 0
10 1 58.7099991 -5.5468898 -7.5569201 1.5119601 -1.78247 2.7795999 -2.27333 1
15 1 58.7099991 -5.7277498 -5.8955598 3.4104099 -6.0132399 3.1738401 -0.19596 0
112 1 58.7099991 -3.60215 -5.87432 1.85524 -0.0553093 -1.52748 2.05463 0
113 1 58.7099991 -4.0022898 10.9648 3.1270299 -7.2530499 6.2416201 4.6181202 0
115 1 58.7099991 -2.7777 -5.8917298 4.06318 -3.45471 -2.87306 5.1896701 0
213 1 58.7099991 -0.870473 11.1124001 4.2276602 -8.8902998 2.4408701 -0.572773 0
215 1 58.7099991 3.3041301 10.3930998 3.2864699 0.159936 -5.2230601 -9.1614704 0
312 1 58.7099991 5.5740299 -7.43575 2.97119 5.4709702 -2.34478 7.87946 0
315 1 58.7099991 4.6005202 -3.6849201 1.68502 4.0323701 -11.8979998 -0.26511 0
413 1 58.7099991 5.6726499 -3.7885399 4.3532701 8.7700701 0.930108 -3.93903 0
12 1 58.7099991 -7.3239699 -5.62919 1.3588801 1.9303402 10.5747004 -8.2396202 0
13 1 58.7099991 10.9722004 11.0256004 2.5929401 -0.482705 -0.731081 -5.03196 0
415 1 58.7099991 9.9665204 -5.82865 4.0921102 7.1115298 -0.12998 1.5453 0
30 1 58.7099991 -5.6029201 -4.0599499 1.72454 -2.3139801 -1.54825 3.1857801 0
35 1 58.7099991 -6.2227802 -1.77081 3.7231 1.70489 -1.1097601 5.92794 0
132 1 58.7099991 -3.9933702 -2.0866301 2.1380401 -2.7988501 -6.3763399 8.73874 0
133 1 58.7099991 -4.27916 -3.7486301 3.8132301 -0.877982 3.41958 1.00888 0
135 1 58.7099991 -2.25071 -1.98596 4.2592802 -5.99753 3.941 7.3397699 0
233 1 58.7099991 -0.813454 -4.0599198 4.6550102 -4.6767102 -0.973412 7.2119002 0
235 1 58.7099991 1.0449899 -2.37865 3.89447 2.0504799 3.8841 6.2964702 0
332 1 58.7099991 3.5964101 -1.64833 3.0141101 -12.5223999 2.5822101 -3.5685001 0
333 1 58.7099991 3.3648501 -4.0977502 4.11062 -0.683556 2.1477201 -0.141504 0
335 1 58.7099991 3.3869701 0.7805521 2.9106902 8.5978699 8.1007605 2.09044 0
433 1 58.7099991 6.5569902 -5.8070798 5.4303999 0.115804 11.2532997 -1.69574 0
32 1 58.7099991 -7.6252899 -2.3626299 1.82572 -0.124258 -0.46305 3.8504602 0
33 1 58.7099991 -7.50348 -4.0908799 3.43256 -7.81949 -4.2923498 7.86863 0
435 1 58.7099991 6.5278402 -0.399893 6.1857801 11.4666996 7.7066398 1.86731 0
50 1 58.7099991 -5.8196502 0.244536 1.53714 -0.858234 -1.7482001 12.8409004 0
53 1 58.7099991 10.0338001 -1.40376 3.92312 -8.0828199 0.579546 -4.0402398 0
150 1 58.7099991 -2.20502 -0.25891 2.47049 6.1167402 2.4655199 -1.05735 1
153 1 58.7099991 -4.2185702 -0.232002 3.6538701 0.78306 0.710759 1.0863301 0
152 1 58.7099991 -3.53337 1.8014601 2.1563399 3.2939201 -5.33917 2.2620101 0
155 1 58.7099991 -2.0262401 2.0955501 4.0055799 0.581024 -4.684 -0.0504923 0
253 1 58.7099991 -0.611281 0.150075 4.2670298 -1.38279 5.3815398 8.7445698 0
250 1 58.7099991 1.45558 -0.242116 2.4391899 0.990563 -7.36234 4.0095301 0
353 1 58.7099991 2.42305 -0.667033 5.0196099 1.02955 4.70746 -7.36303 0
255 1 58.7099991 1.30405 2.04212 4.1482601 -2.4356101 -17.4801007 0.964575 0
352 1 58.7099991 2.96344 1.43356 -0.982015 -0.903844 5.90304 -2.0034001 0
350 1 58.7099991 4.61061 0.992706 0.924163 2.95386 1.3593 0.0175094 0
453 1 58.7099991 8.3419304 -0.464526 2.7214501 1.95436 -10.6070004 -4.7293802 0
455 1 58.7099991 10.5796004 1.4107701 3.85133 11.3985005 -11.5369997 2.8276501 0
55 1 58.7099991 -6.0206699 2.0251999 3.4741299 -1.5515701 1.02774 -3.15692 0
70 1 58.7099991 -5.91114 3.93455 1.9314 -2.6668401 1.84618 3.31445 0
73 1 58.7099991 -7.1974902 4.6173501 3.71714 -4.1079702 6.4033699 2.34862 0
170 1 58.7099991 -1.77957 3.6679399 2.1275499 2.49311 2.82056 -7.42272 0
173 1 58.7099991 -3.76734 3.5531099 3.3870399 6.04072 7.8276901 -5.96279 0
273 1 58.7099991 -0.592004 4.0871601 4.1698198 -6.8000202 1.01591 -0.860018 0
373 1 58.7099991 1.75664 1.6993801 1.24079 -8.1118202 -7.47118 -0.225628 0
355 1 58.7099991 6.0272899 0.469854 2.9310802 -0.555094 -2.9691502 -11.7671004 0
473 1 58.7099991 9.2796803 3.3949399 4.3149099 -0.36918 -14.3251 -0.110537 0
470 1 58.7099991 9.9708796 3.99439 1.69311 -2.73626 5.44767 -2.80163 0
72 1 58.7099991 -7.39504 5.9330402 1.2694 0.440639 6.0413599 -1.11229 0
75 1 58.7099991 -6.31497 6.49259 3.1231 -3.1466 -1.5588 1.93139 0
90 1 58.7099991 -5.7535601 7.6517201 1.26995 -1.54236 0.229945 -0.51925 0
172 1 58.7099991 -4.2139101 5.51931 1.96041 -7.0813799 6.31387 -0.952269 0
175 1 58.7099991 -2.50666 5.5760598 3.5398901 -1.6472501 1.04269 3.5797901 0
190 1 58.7099991 -2.5434699 7.2217398 1.58296 0.905859 7.2997198 -2.2764299 0
193 1 58.7099991 -4.2431598 7.5974999 3.0513799 2.34003 -3.0274501 -2.5614 0
293 1 58.7099991 -0.826823 7.3053398 4.2093701 2.72064 -0.980865 -1.01797 0
275 1 58.7099991 3.34992 4.6479802 3.01039 -4.6963301 11.1800003 -9.0319796 0
372 1 58.7099991 4.8635702 6.5230298 0.948535 6.2121201 -10.0529003 -4.4190502 0
393 1 58.7099991 3.3387001 6.7147398 3.08952 14.2187004 -3.77262 -0.793857 0
375 1 58.7099991 5.8796902 5.0984001 2.1148801 9.76929 2.0064399 4.7052102 0
390 1 58.7099991 7.55161 8.8552104 -0.455168 -9.7870102 -7.4602099 -0.0135302 0
472 1 58.7099991 7.8731098 4.7960601 2.75065 -1.31348 0.182178 -1.39244 0
493 1 58.7099991 7.7645402 7.09302 2.81197 7.3978 2.48085 3.3416901 0
93 1 58.7099991 11.0998001 8.6799803 2.85393 5.7906699 1.55601 4.7483301 0
475 1 58.7099991 9.8709202 6.2449298 3.08617 -6.0588799 -5.9224602 1.0042 0
490 1 58.7099991 9.5616799 7.5503302 0.991385 2.3613601 0.0299491 13.2573004 0
95 1 58.7099991 -5.7676602 9.8145104 3.3399999 -2.97264 6.8409902 0.65058 0
192 1 58.7099991 -4.0067101 9.3709698 1.33882 -6.7811198 4.5518499 0.886373 0
195 1 58.7099991 -2.1486399 9.2798004 3.4247999 -5.9277302 3.0222199 5.9373498 0
295 1 58.7099991 0.879185 9.3792105 3.9129702 -2.9180702 -3.32007 5.7234102 0
313 1 58.7099991 5.41888 9.5670405 4.9306402 5.0099602 -11.1293001 6.7864299 0
310 1 58.7099991 7.5544 -6.8014002 3.6922601 3.2718201 -2.2669101 -4.6835599 0
395 1 58.7099991 5.30268 7.6064 2.96291 -11.7924996 -7.86408 4.10219 0
410 1 58.7099991 9.4173498 -6.6033902 1.6944601 3.4584501 3.4470999 0.0415558 0
92 1 58.7099991 -7.5578099 9.5917597 0.870017 -4.0379701 -3.36431 2.2348299 0
495 1 58.7099991 8.7668 9.7108498 1.43635 2.23101 4.4505501 -14.2697001 0
14 1 58.7099991 -5.2476502 10.7938004 5.3735299 2.55161 5.2321601 -1.566 0
16 1 58.7099991 -7.2536202 -6.1725302 5.56918 -1.67026 -8.6928301 -0.0858489 0
19 1 58.7099991 -5.90162 -5.4911099 7.50771 -5.3998199 1.4894901 10.9202996 0
114 1 58.7099991 -2.78737 11.1520996 5.39814 -1.52173 6.7091699 -0.0316708 0
116 1 58.7099991 -4.4678002 -5.9481802 5.7374902 -1.15483 3.6785701 -1.95333 0
117 1 58.7099991 -4.13234 11.0416002 7.5635901 -0.693626 2.51032 -2.7140999 0
119 1 58.7099991 -2.7581601 -6.08811 7.8217802 -5.5580101 9.7706003 1.5191 0
216 1 58.7099991 -0.92302 -6.0096598 5.81357 -9.8622504 -2.0752599 -5.8712002 0
217 1 58.7099991 -1.83916 10.4611998 7.3819299 -4.3724599 1.14197 -4.5867801 0
214 1 58.7099991 0.685365 9.6635704 6.5425902 5.1893802 -0.77792 -5.9474602 0
219 1 58.7099991 -0.130759 -7.0812702 7.7101002 -7.3029399 -2.42728 -1.28669 0
316 1 58.7099991 2.26014 -6.9579 6.1635599 7.5522399 1.49831 5.6289902 0
319 1 58.7099991 5.4986301 -5.7697602 7.6094799 -7.0363102 -2.44307 -3.0378201 0
416 1 58.7099991 8.4374905 -5.5608101 10.1283999 5.6096502 -5.4767499 8.9509402 0
417 1 58.7099991 7.0431099 8.9407598 7.26051 -6.6936698 8.4465904 0.7582 0
17 1 58.7099991 -7.2076898 11.0858002 7.3780499 -2.7783401 4.72153 -2.5948501 0
414 1 58.7099991 9.1532402 10.1904001 3.7381101 3.3752799 -3.36221 -3.11466 0
419 1 58.7099991 9.5071001 -6.5105701 6.31352 -3.36307 2.8903502 2.5713601 0
34 1 58.7099991 -6.2171998 -4.0076199 5.5054403 -5.6656199 3.5155201 -1.25081 0
39 1 58.7099991 -6.5453801 -1.92529 7.0552301 4.93713 -2.4119101 -1.7559201 0
134 1 58.7099991 -2.4587701 -4.09306 6.46732 4.0862098 3.0801599 -5.9081402 0
136 1 58.7099991 -4.6545 -1.68925 5.5373702 0.310192 -4.06425 2.1515601 0
137 1 58.7099991 -4.5550699 -3.6264999 7.3638702 -2.2952001 8.2197905 -5.6255698 0
139 1 58.7099991 -2.71629 -1.98964 7.6464 6.5571599 0.330001 -0.781678 0
236 1 58.7099991 -0.803626 -2.3396299 6.2802401 -5.9733702 5.36412 1.05617 0
237 1 58.7099991 0.0981934 -4.1205401 7.3110299 -1.4583301 -6.3197999 -8.38515 0
239 1 58.7099991 1.35673 -1.80751 7.86332 -7.78475 5.7274599 -9.4129801 0
234 1 58.7099991 1.19933 -4.6025701 5.0272198 1.6973 -8.4807596 -11.4854002 0
336 1 58.7099991 3.7333501 -6.2717099 3.91787 5.2890802 7.63555 -6.51191 0
337 1 58.7099991 2.90866 -4.8498202 6.4446802 10.1948996 2.44188 -7.00983 0
334 1 58.7099991 5.9138598 -2.74784 6.2428799 12.7027998 -7.7342 9.4842901 0
339 1 58.7099991 5.77312 -1.62481 8.0341301 0.200696 2.8071499 -5.4588199 0
436 1 58.7099991 8.4493504 -1.97874 7.3026099 5.8220601 0.188249 -10.6512003 0
437 1 58.7099991 8.3359404 -5.8046599 8.0325604 -6.0549202 -16.5387993 -4.34549 0
36 1 58.7099991 10.0037003 -3.28601 5.8010102 10.7400999 -7.0582199 5.1028099 0
37 1 58.7099991 10.8306999 -4.08954 7.7698498 -3.94028 -5.5623203 2.7535901 0
434 1 58.7099991 7.9647002 -2.0182199 4.9510798 -8.5186701 -0.459134 -1.13433 0
439 1 58.7099991 10.3452997 -1.37341 8.2214604 -4.1189199 11.7933998 -6.7642799 0
54 1 58.7099991 -5.7876802 0.523079 5.4900399 1.0459 0.198927 3.79437 0
154 1 58.7099991 -2.08939 -0.0954737 5.99568 3.5588 6.4782601 -3.89477 0
157 1 58.7099991 -4.5261598 -0.151725 7.6996799 3.3188501 -2.5947299 -5.8102899 0
156 1 58.7099991 -3.72853 1.45142 5.1485701 -0.0014777 -5.1701498 11.6309996 0
257 1 58.7099991 -0.811488 -0.485039 7.8443098 -0.272686 4.01649 2.10604 0
259 1 58.7099991 2.5931101 0.105303 7.1326299 6.1912098 -2.07745 -9.9663898 0
254 1 58.7099991 3.49896 -2.4735501 6.5553999 3.57829 0.267756 1.0585001 0
357 1 58.7099991 3.2932899 -1.40377 8.8593398 -10.2278996 -10.5754996 -1.60943 0
356 1 58.7099991 4.2112498 2.84968 4.2252002 3.1758201 8.5317202 -7.7561999 0
354 1 58.7099991 4.2234101 0.646403 5.1656399 1.11552 -3.46262 4.4614201 0
457 1 58.7099991 7.86478 0.379665 7.80512 8.8559104 -6.58951 -5.6567898 0
359 1 58.7099991 4.91185 0.66011 7.8073802 -3.93936 2.3139401 -7.8129802 0
456 1 58.7099991 8.1444502 1.00007 5.1510902 -4.3856902 -4.0821099 6.0173602 0
57 1 58.7099991 -7.2274099 1.07482 8.2416096 -9.3021298 -11.1781998 0.26367 0
454 1 58.7099991 10.5131998 -0.180827 5.7897902 1.2883901 2.09466 0.685346 0
459 1 58.7099991 8.9540006 2.23122 8.98341 -13.3100004 8.4264403 -5.5587502 0
56 1 58.7099991 -7.5145002 2.392 5.80442 -3.09531 2.5921099 1.1066001 0
59 1 58.7099991 -5.2534299 2.4138899 7.3319602 5.4275198 9.9146996 -0.384026 0
74 1 58.7099991 -5.6760001 3.4693301 5.18818 -3.1602099 1.6038001 1.24072 0
77 1 58.7099991 10.8596002 3.6612501 8.18995 2.6589201 5.5792899 -0.48133 0
159 1 58.7099991 -2.79004 1.86394 7.2306299 -2.0240099 -0.880387 -1.6836 0
174 1 58.7099991 -2.7461601 4.2532902 5.4663701 -4.2171302 -1.7564301 8.1834602 0
177 1 58.7099991 -3.4310801 4.4682498 7.6434202 -1.4049 6.10642 6.9412498 0
256 1 58.7099991 0.406376 0.350416 6.1814399 -9.77038 6.2275801 5.0947299 0
277 1 58.7099991 -0.823774 2.51383 5.9312302 -4.3917298 -0.917411 0.944428 0
274 1 58.7099991 1.56843 4.1975799 5.25979 1.72218 2.1772299 -15.7473002 0
377 1 58.7099991 3.2899001 3.7839799 6.8913102 -10.0674 -4.8043399 9.6240502 0