ITEM: TIMESTEP
0
ITEM: NUMBER OF ATOMS
384
ITEM: BOX BOUNDS xy xz yz pp pp pp
-1.0286203702253184e+01 2.1814954520361155e+01 -2.0343680917961624e+00
-8.9742306048860261e+00 2.1706634957886848e+01 -8.0117654430960545e+00
-1.8405460455864997e-01 1.4435954548558893e+01 -8.7531428779991050e+00
ITEM: ATOMS id type mass x y z vx vy vz 
1 1 47.867 -2.23 21.2616 -0.146415 -2.11531 -5.71231 2.05243 
2 1 47.867 1.53686 1.1392 1.87754 3.83265 2.04006 -0.490642 
3 1 47.867 3.7868 1.74697 0.0809087 1.20065 2.19467 8.54114 
4 1 47.867 2.48929 4.26826 1.09255 -1.71617 4.54274 0.823982 
5 1 47.867 2.69358 3.21103 3.54466 1.82772 0.96434 3.36237 
6 1 47.867 5.11372 3.41683 2.09678 -4.15272 3.86994 -3.79224 
7 1 47.867 3.89317 6.20949 2.82854 7.11289 3.55834 4.27466 
8 1 47.867 4.10793 4.90442 5.34011 4.15065 -0.644622 -0.287528 
9 1 47.867 6.57487 4.73168 3.97072 0.235305 -2.46977 0.0897989 
10 1 47.867 4.95084 7.9234 4.72743 -4.12391 4.15361 2.48295 
11 1 47.867 5.99296 6.66596 7.46826 7.76861 -1.74696 8.07021 
12 1 47.867 8.10301 6.75917 5.68201 6.2881 2.42497 -5.63146 
13 1 47.867 6.9343 9.41537 6.60703 2.66303 -6.78937 3.91652 
14 1 47.867 7.25177 8.10963 9.34093 -5.54459 4.24593 -0.160917 
15 1 47.867 10.0554 8.47902 7.46363 5.53476 2.16435 -2.84769 
16 1 47.867 8.21161 11.024 8.04598 -11.4118 -1.5935 -1.57421 
17 1 47.867 8.54631 10.1658 11.0175 1.63518 -2.51059 4.49159 
18 1 47.867 11.0733 10.3078 9.46974 -3.80993 -3.59605 -1.86261 
19 1 47.867 9.59153 12.6354 10.0514 2.5206 0.00634282 -3.50119 
20 1 47.867 10.2231 11.279 12.7005 -1.05183 -1.35962 3.45755 
21 1 47.867 12.798 12.1387 11.3937 -1.61155 -2.13793 3.94834 
22 1 47.867 11.2914 14.3727 11.8966 6.09628 2.58534 -3.31945 
23 1 47.867 -7.98653 13.6204 13.1782 1.73428 -0.0689435 -1.42122 
24 1 47.867 -6.97678 -5.98859 13.869 0.652038 5.93381 0.259858 
25 1 47.867 13.0598 -3.45414 14.4087 -0.122408 4.32458 5.98244 
26 1 47.867 0.713392 6.15851 1.5402 5.05095 -2.42431 -5.81211 
27 1 47.867 2.85377 7.76538 0.416157 2.08123 4.01409 0.0430284 
28 1 47.867 1.30527 10.1693 1.1112 -6.45231 -5.31358 2.30456 
29 1 47.867 2.49771 8.80701 3.39768 -5.06982 -3.71596 2.09746 
30 1 47.867 4.97044 9.2246 2.13829 -0.766321 -7.72264 -1.06254 
31 1 47.867 3.18831 11.4896 2.73712 -1.91179 7.73324 -2.38065 
32 1 47.867 3.54503 10.5416 5.45687 3.2833 0.270008 1.33962 
33 1 47.867 5.99671 11.2121 4.69199 -1.30291 -4.00576 -2.51522 
34 1 47.867 4.46058 13.6007 4.59369 9.11638 4.08063 -1.18811 
35 1 47.867 5.32806 11.8435 7.02545 1.97461 -2.2225 -1.23719 
36 1 47.867 8.11024 12.779 6.06213 -3.39939 -3.97647 0.343643 
37 1 47.867 6.38813 15.0119 6.71974 9.98103 4.37663 -7.2694 
38 1 47.867 7.00116 13.2166 9.18433 -2.80786 8.99211 -3.55896 
39 1 47.867 9.38859 14.4655 7.92751 4.79108 -0.637122 2.35172 
40 1 47.867 10.2476 -5.25017 8.31083 -1.58101 4.68641 -4.89112 
41 1 47.867 10.5571 -6.87293 11.0313 -2.18029 6.96626 -0.0530279 
42 1 47.867 12.832 -6.04568 9.7718 0.244871 -5.44821 -6.93844 
43 1 47.867 11.0406 -3.43005 10.4988 -0.614733 -2.78623 -1.14076 
44 1 47.867 12.175 -5.53088 12.8603 -8.38072 0.35247 -3.03311 
45 1 47.867 13.923 -3.9582 11.3473 -0.826429 -5.04498 -0.720622 
46 1 47.867 12.6583 -1.8224 12.105 0.997968 6.38662 -2.03283 
47 1 47.867 -6.35783 -3.04874 13.0832 0.484288 -0.586637 -0.429111 
48 1 47.867 -7.80699 -0.389568 13.9225 -6.46356 -0.0159239 3.02831 
49 1 47.867 12.7705 1.78425 14.3781 -3.27367 0.61804 -0.279119 
50 1 47.867 0.0712265 12.4162 1.32644 4.76212 -8.01331 -5.82986 
51 1 47.867 2.95119 12.9894 0.598572 1.45645 -6.22964 3.03024 
52 1 47.867 1.28822 15.4675 0.863921 1.49887 -0.161225 5.32297 
53 1 47.867 1.38608 13.854 3.38206 -5.97671 -0.819823 1.04905 
54 1 47.867 4.14883 14.7249 2.112 -2.31382 -6.74427 -0.906327 
55 1 47.867 3.2253 17.389 2.57181 2.33986 3.72922 -6.4357 
56 1 47.867 3.11348 15.8054 4.98512 -3.79498 5.58098 2.41192 
57 1 47.867 6.2128 15.9641 3.90026 3.19514 3.26792 -6.22037 
58 1 47.867 6.16198 -2.68204 5.02612 2.50151 -1.20435 8.06283 
59 1 47.867 4.73785 17.1074 6.98398 -7.68698 -5.646 -1.14042 
60 1 47.867 7.35289 17.9132 5.86457 2.77521 4.17784 -5.33375 
61 1 47.867 7.80094 -1.19416 6.62544 -4.96865 0.435099 -2.33506 
62 1 47.867 8.44652 -3.11221 9.17834 0.605215 -5.72029 -5.43625 
63 1 47.867 10.8042 -2.38679 7.99959 2.87704 -4.53956 -2.21602 
64 1 47.867 9.48457 0.139036 8.42658 1.18812 0.238703 -0.908019 
65 1 47.867 9.79554 -1.11087 10.8528 -2.41785 -0.124144 1.2727 
66 1 47.867 12.5639 -0.585613 9.19258 1.06769 2.86196 2.54383 
67 1 47.867 10.7404 1.5567 10.1142 -1.25524 2.98291 2.13785 
68 1 47.867 10.9927 0.428251 12.7705 1.35816 4.35672 6.36437 
69 1 47.867 13.5003 1.15644 11.7091 -1.27135 -4.12123 2.63184 
70 1 47.867 12.0063 3.38974 12.0571 4.62561 5.20501 3.63854 
71 1 47.867 -6.50725 2.58431 12.784 1.90374 -3.53108 2.0117 
72 1 47.867 -8.54682 4.95388 13.6817 6.24541 1.37285 0.737324 
73 1 47.867 -9.6809 7.84743 14.4023 -0.0928338 -0.944761 -0.697538 
74 1 47.867 -0.126338 17.6836 1.58799 -5.38799 1.99948 0.562553 
75 1 47.867 2.87598 18.7098 0.0468279 7.54667 -5.42841 -4.94472 
76 1 47.867 0.772105 20.4483 1.39335 5.2549 -1.63434 2.07282 
77 1 47.867 3.20763 -2.45498 3.80845 0.46292 -0.962135 -5.3909 
78 1 47.867 3.68429 20.1639 2.11166 0.132954 -0.268904 -5.17048 
79 1 47.867 4.31609 0.963718 2.80342 4.73356 -2.16628 10.0203 
80 1 47.867 4.7314 -0.528748 5.44872 2.6144 1.8128 1.27171 
81 1 47.867 6.71788 -0.271025 3.82752 -4.19685 1.43461 -1.63758 
82 1 47.867 5.34216 2.5677 5.07163 2.83383 -5.49056 -1.96848 
83 1 47.867 6.28197 0.823701 7.15438 -0.955156 0.697643 5.1395 
84 1 47.867 8.98442 1.52499 6.00439 3.17247 -4.28662 1.76176 
85 1 47.867 7.07566 4.36173 6.49437 3.05992 5.55006 4.97915 
86 1 47.867 7.7076 2.29215 8.58263 -2.05384 4.88063 -2.83508 
87 1 47.867 10.7579 3.03586 7.83974 2.43848 1.56078 3.08419 
88 1 47.867 9.16414 5.5504 7.82804 10.5455 -1.29659 -3.3836 
89 1 47.867 9.1659 3.90613 10.0989 0.442488 0.276041 -0.917464 
90 1 47.867 11.7632 5.10252 9.6522 0.528706 -3.31436 6.41495 
91 1 47.867 9.98855 7.52918 9.9313 -4.69067 -7.48632 5.45749 
92 1 47.867 10.5474 5.87985 12.4776 -1.37159 -3.96288 1.96141 
93 1 47.867 12.9049 6.93646 11.5617 -4.22888 -0.1375 -4.0788 
94 1 47.867 11.6412 9.0059 12.0587 3.15997 -5.4292 1.44486 
95 1 47.867 -7.14544 7.89951 13.0061 -1.25041 -6.24727 0.359419 
96 1 47.867 -8.68694 10.5616 13.7093 4.57107 1.20844 -7.41846 
97 1 47.867 -2.39761 -8.84159 14.3729 -1.77016 4.60289 2.73059 
98 1 47.867 7.2194 1.19756 1.57008 -1.73724 -5.41332 -4.15645 
99 1 47.867 9.34162 2.12628 -0.015883 4.99414 -2.17978 -0.383278 
100 1 47.867 7.73475 4.7052 1.12871 7.19189 0.284233 -5.1624 
101 1 47.867 8.01801 2.56842 3.69323 0.826278 4.18046 2.29631 
102 1 47.867 10.1851 3.40169 2.2614 -0.656774 5.7712 1.7077 
103 1 47.867 9.42766 6.21526 3.42572 0.931317 -2.67002 -2.89669 
104 1 47.867 10.1131 4.41576 5.67679 0.698288 6.81837 -4.17601 
105 1 47.867 12.2906 5.56206 3.5828 1.09544 -1.35735 -4.20986 
106 1 47.867 10.8371 8.00239 4.94342 4.11408 11.5376 -4.97813 
107 1 47.867 11.8775 5.83391 6.82519 0.667745 1.8159 0.501234 
108 1 47.867 14.1877 7.05915 5.90725 -2.3911 5.69811 -2.65821 
109 1 47.867 12.5305 9.59039 6.27686 -4.1276 -0.268898 0.24937 
110 1 47.867 12.6398 8.03103 8.94591 1.30725 -4.22513 -0.339216 
111 1 47.867 15.2798 9.07406 7.68156 3.49313 2.929 0.40898 
112 1 47.867 13.6724 10.8078 8.90836 3.33247 -0.698314 2.41429 
113 1 47.867 -7.81878 9.56581 11.3396 -2.61184 -2.74648 -4.23281 
114 1 47.867 -5.18355 10.254 9.78995 0.425902 1.65227 1.59656 
115 1 47.867 -6.90178 12.7899 10.2234 5.60325 -0.0479387 -0.938038 
116 1 47.867 -6.32399 11.566 12.3798 -0.230067 0.618768 -4.27872 
117 1 47.867 -3.85969 12.1971 11.1476 -3.41562 5.37795 0.277612 
118 1 47.867 -3.13251 -7.53918 12.1909 5.35435 -5.00935 0.675365 
119 1 47.867 -0.362316 -7.95888 13.079 -4.92523 0.957914 -0.259723 
120 1 47.867 -2.02702 -5.76599 14.1942 -5.56076 -4.74111 -6.7588 
121 1 47.867 4.92341 5.71012 0.0849476 4.44516 1.75965 -7.04162 
122 1 47.867 6.49424 7.01478 2.08309 -0.958697 -3.29175 2.1578 
123 1 47.867 8.66984 7.46786 0.347235 -0.101133 1.56415 5.38733 
124 1 47.867 7.55169 9.9888 1.06779 -5.4431 4.12385 -0.00633595 
125 1 47.867 7.49766 8.73437 3.72614 -2.78121 -0.558639 9.20672 
126 1 47.867 9.92039 8.80561 2.12226 1.67756 -4.56848 -2.00481 
127 1 47.867 8.69554 11.4531 3.20399 -8.11083 3.81003 3.01308 
128 1 47.867 9.54516 10.5763 5.32509 0.242825 -2.28658 3.63216 
129 1 47.867 12.0539 10.8992 3.7469 -1.45125 2.39213 -6.6499 
130 1 47.867 10.4202 13.6325 4.99642 -5.54033 -1.53982 -4.10811 
131 1 47.867 10.8394 12.0519 7.35287 3.22851 -3.89789 -6.32633 
132 1 47.867 13.2296 12.4999 6.50717 -2.24911 -0.217397 -0.448894 
133 1 47.867 11.9897 14.9575 6.74108 -3.70876 -3.58375 -2.42748 
134 1 47.867 12.5155 13.6152 9.22581 -0.313994 2.00751 0.198979 
135 1 47.867 14.9089 14.4752 8.16844 1.22617 -1.45172 4.38924 
136 1 47.867 15.1259 -5.30392 8.61446 2.34745 1.63881 -3.33308 
137 1 47.867 -6.12775 -6.37798 11.0482 -8.93365 -2.62981 0.0252362 
138 1 47.867 -3.93624 -5.92096 9.88938 4.98735 0.965908 -4.2181 
139 1 47.867 -5.37279 -3.32993 10.2829 -9.86155 4.09445 5.26527 
140 1 47.867 -4.38788 -4.80278 12.6895 5.38581 -3.44694 -1.52922 
141 1 47.867 -1.87679 -4.35388 11.3905 2.24792 -1.51988 3.44711 
142 1 47.867 -3.68478 -2.15701 12.5018 -0.24642 -4.93286 2.74836 
143 1 47.867 -0.92684 -2.56122 13.0485 -0.621559 -2.34192 -2.94496 
144 1 47.867 -2.4118 -0.359733 14.1576 1.63944 -4.29069 0.243463 
145 1 47.867 -3.96009 2.00234 14.3883 2.13164 -1.96726 1.75657 
146 1 47.867 5.75495 12.0824 1.69612 0.642488 -4.37722 -6.06072 
147 1 47.867 8.56213 13.295 0.441768 2.65601 -1.98025 3.31638 
148 1 47.867 7.01177 15.4154 1.15262 -4.20026 2.6467 -0.350444 
149 1 47.867 7.0921 13.6343 3.42747 -4.03449 -6.25961 3.86559 
150 1 47.867 9.72449 14.8808 2.7339 2.53388 -2.94714 0.118344 
151 1 47.867 8.23293 17.4241 2.6776 -3.80433 -2.8766 -4.58786 
152 1 47.867 8.46672 15.7241 5.22869 6.25346 2.31701 5.71182 
153 1 47.867 11.4656 15.9139 4.4784 -1.77851 3.14247 -4.58899 
154 1 47.867 9.81278 18.536 4.60672 -3.89121 1.97832 8.39401 
155 1 47.867 10.5831 17.2448 7.24098 4.86669 -2.07071 -1.20383 
156 1 47.867 14.5584 -3.51467 5.89094 -2.17972 -3.91185 1.50248 
157 1 47.867 13.2615 -1.24103 6.213 6.92413 -2.76701 -7.50314 
158 1 47.867 14.0699 -2.67482 8.48408 0.219234 2.32178 -0.503537 
159 1 47.867 16.805 -2.06414 7.3665 -2.49569 -7.11351 1.9935 
160 1 47.867 14.9926 0.0129139 8.64009 -1.55365 -3.59918 -0.200068 
161 1 47.867 15.1434 -1.26034 10.9654 -1.64107 0.354179 4.72579 
162 1 47.867 -4.17495 -0.535157 9.74729 -2.24631 -2.8237 8.16421 
163 1 47.867 -5.74534 2.03069 10.1717 1.74398 -4.18764 -0.87684 
164 1 47.867 -5.25963 0.0456254 12.6317 -8.33042 0.120944 -0.843136 
165 1 47.867 -3.10249 1.36684 11.7147 -6.39356 -1.08426 -4.94034 
166 1 47.867 -3.73912 3.87973 12.0408 -3.1569 -1.0505 -0.546677 
167 1 47.867 -1.04706 2.48643 13.1021 1.24989 -1.89757 -0.332095 
168 1 47.867 -2.53364 4.66141 14.3205 0.214876 2.75138 0.812846 
169 1 47.867 -4.0768 7.34108 14.1502 1.77977 -2.12233 -2.09687 
170 1 47.867 5.53897 17.9005 1.31125 3.17502 -0.164879 0.870795 
171 1 47.867 0.208798 10.1166 14.2085 -2.05119 0.520988 -0.420025 
172 1 47.867 6.27126 20.6504 0.865732 -2.18082 3.33388 -2.46218 
173 1 47.867 8.70133 -2.37822 3.46071 -0.121933 -4.41519 4.36937 
174 1 47.867 9.29002 19.907 1.89661 6.57934 -0.705725 1.74338 
175 1 47.867 9.73008 0.474253 2.88741 -3.12843 -0.737899 -0.538413 
176 1 47.867 10.541 -0.876722 5.27481 -3.82834 -7.63886 4.55967 
177 1 47.867 12.4899 -0.0903737 3.93486 0.242018 6.60222 -3.03009 
178 1 47.867 11.1931 2.38687 4.45971 0.768753 4.57383 7.70806 
179 1 47.867 11.7368 0.727595 6.72468 10.8575 2.41759 5.07006 
180 1 47.867 14.6188 0.851068 5.63775 -3.66571 4.27096 -5.95101 
181 1 47.867 13.337 3.29502 6.39038 0.973533 4.49397 -3.31027 
182 1 47.867 13.7069 2.5758 9.07926 6.40058 -2.70094 2.07191 
183 1 47.867 16.1071 3.20693 7.48297 2.4485 -3.02237 -0.150799 
184 1 47.867 14.2026 5.49713 8.05606 0.21273 3.48968 6.21351 
185 1 47.867 14.2004 4.50167 10.8383 -7.32506 0.470187 1.27659 
186 1 47.867 -5.09958 5.05424 9.75019 4.9045 -2.47266 4.54387 
187 1 47.867 -6.51226 7.64098 10.0278 1.49161 -3.18781 -0.286211 
188 1 47.867 -5.8587 5.48742 12.9141 1.74433 -3.89934 -5.05237 
189 1 47.867 -3.12079 6.33057 11.6724 2.03621 -1.95281 2.7376 
190 1 47.867 -4.73899 8.82411 12.0433 4.45808 5.95888 -1.86285 
191 1 47.867 -1.71534 8.04384 13.1741 0.0635293 1.58575 -3.64524 
192 1 47.867 -2.93254 10.7463 13.2982 -6.09446 -0.888329 -3.79261 
193 1 47.867 0.428801 12.8104 14.3374 -2.32459 -2.3003 3.97572 
194 1 47.867 11.9633 1.68389 1.32198 0.090679 3.00407 -1.24957 
195 1 47.867 14.586 1.76512 0.456303 4.16173 3.60859 -2.39939 
196 1 47.867 13.6673 4.76524 0.992578 -0.681654 3.68224 -5.03873 
197 1 47.867 13.6892 2.84334 3.40801 -6.11253 -9.61477 -1.30169 
198 1 47.867 16.0756 3.68497 1.88023 -5.11156 -6.25832 -0.743295 
199 1 47.867 15.2042 6.07941 2.915 -2.06102 -8.26233 1.19851 
200 1 47.867 15.4193 4.52875 5.1119 -4.00357 -2.68087 -3.92631 
201 1 47.867 17.9896 5.60866 3.78465 -1.18289 1.41276 -2.53734 
202 1 47.867 16.5491 8.11412 4.93556 2.27102 6.42759 2.44184 
203 1 47.867 16.8405 6.34166 7.0029 -3.68783 -2.59528 4.96765 
204 1 47.867 -2.97645 7.41264 6.17797 -7.09171 -4.04792 4.16108 
205 1 47.867 -4.18081 9.49593 6.98937 1.57844 -3.86197 -2.5075 
206 1 47.867 -3.79111 7.86464 9.18623 -3.13424 -1.90936 2.77441 
207 1 47.867 -1.13766 8.57353 7.7363 4.86888 -8.93296 4.8497 
208 1 47.867 -2.71937 11.7046 8.23754 -5.89217 -2.99597 -1.29295 
209 1 47.867 -2.06627 9.64743 10.6044 -3.67577 -2.27104 4.9836 
210 1 47.867 -0.0151155 10.6147 9.21423 -4.49937 1.3309 5.08791 
211 1 47.867 -1.36228 12.9695 10.1096 1.16907 -5.09164 2.9706 
212 1 47.867 -0.54302 11.3155 11.9438 1.04228 7.97397 3.49691 
213 1 47.867 1.97178 12.3028 10.9167 0.0898995 3.03246 -2.06497 
214 1 47.867 0.184296 14.3105 11.9663 0.723301 -2.28923 -5.89686 
215 1 47.867 3.06256 13.377 12.8772 3.29283 1.90042 0.794781 
216 1 47.867 4.14035 -5.872 13.4844 -2.56065 2.65795 6.18089 
217 1 47.867 10.3628 5.46156 0.236507 -4.85174 -1.63495 -0.952896 
218 1 47.867 12.0693 7.38516 1.54937 -3.90805 6.1612 -0.239728 
219 1 47.867 14.6404 7.57907 0.408742 -5.88027 -0.392835 -1.18772 
220 1 47.867 13.0575 9.88761 0.870558 0.339211 2.35806 0.0438292 
221 1 47.867 13.3262 8.38468 3.74089 -4.19713 -6.31551 5.0467 
222 1 47.867 16.0312 8.95945 2.26395 -2.20795 -3.75639 -1.89363 
223 1 47.867 14.4593 11.6447 2.71892 6.08005 -2.93616 5.74531 
224 1 47.867 14.89 10.3736 4.92956 -1.11554 -0.477279 -4.20853 
225 1 47.867 17.6588 10.9725 4.57944 -4.85295 3.6319 -3.78912 
226 1 47.867 15.7248 13.3099 4.81488 3.30347 -7.21449 0.0323442 
227 1 47.867 16.0949 11.844 7.28566 0.507636 -1.7829 -4.32779 
228 1 47.867 -3.43851 13.0284 5.75808 -3.92607 5.06271 2.12505 
229 1 47.867 -5.00723 15.1551 6.43883 0.662067 0.490686 -6.17288 
230 1 47.867 -4.497 13.7669 9.00854 -2.33007 -6.39481 -0.10143 
231 1 47.867 -1.50548 14.647 7.50109 1.87802 2.42305 2.20367 
232 1 47.867 -3.61725 16.5152 8.43639 -0.000826862 2.09051 -3.23953 
233 1 47.867 -0.940434 -6.66672 10.7974 7.80601 -4.70978 3.84566 
234 1 47.867 1.48977 -6.20301 10.0486 -7.25454 -1.51863 -2.67215 
235 1 47.867 0.139171 -3.37302 10.063 2.9343 -11.0934 -2.95665 
236 1 47.867 0.523183 -4.76615 12.9337 -2.94454 8.4833 10.1024 
237 1 47.867 3.28741 -4.26854 11.6249 -11.9867 -3.41097 0.15603 
238 1 47.867 1.80301 -2.25912 12.2078 2.62806 0.600984 -4.16394 
239 1 47.867 4.83384 -2.67165 13.5144 0.0793149 3.36532 -0.817145 
240 1 47.867 3.54278 -0.418106 13.3956 2.65838 5.327 -1.256 
241 1 47.867 1.9967 1.95761 13.9151 -2.08719 0.452068 -4.37871 
242 1 47.867 11.0262 12.0862 1.75045 7.45315 -1.47785 6.59166 
243 1 47.867 13.6261 12.7808 0.130962 -2.31454 -2.39701 0.361344 
244 1 47.867 12.1184 14.9627 1.44649 1.64979 6.37441 1.47887 
245 1 47.867 12.9826 13.803 3.76804 -0.16394 -0.235419 0.641309 
246 1 47.867 15.4751 14.6875 2.15952 -3.47654 1.19002 6.39389 
247 1 47.867 13.7546 16.7693 2.88296 3.3644 -3.76039 0.843626 
248 1 47.867 14.1685 16.1206 5.31382 -0.641552 -1.78731 -5.02837 
249 1 47.867 16.9312 16.17 3.77381 0.134389 -2.08615 4.43789 
250 1 47.867 15.721 18.5619 4.46743 8.72647 0.570474 2.27178 
251 1 47.867 17.5895 -4.49522 7.06894 0.0374538 4.32074 -3.29054 
252 1 47.867 -3.99858 17.9563 5.96429 0.785462 -4.9798 3.20989 
253 1 47.867 -2.6144 -1.44799 6.317 1.83431 6.02085 -6.97316 
254 1 47.867 -2.95202 -2.7365 8.83968 -0.499433 5.16919 -2.79393 
255 1 47.867 -0.690677 -1.85261 8.10229 4.81404 4.63063 -0.691297 
256 1 47.867 -2.00939 1.01388 8.56904 2.02664 3.61475 4.05406 
257 1 47.867 -1.83589 -0.896262 10.732 -2.08756 4.09745 0.33324 
258 1 47.867 1.40662 -0.723997 9.80314 -0.793008 4.47029 -6.41079 
259 1 47.867 -0.29242 1.58632 10.2729 8.47781 1.32401 -7.30342 
260 1 47.867 -0.0215137 0.133059 12.7309 1.63716 0.989171 -5.17484 
261 1 47.867 2.51642 1.23326 11.2086 9.33851 1.66584 7.82973 
262 1 47.867 1.25292 3.65981 11.8574 0.924255 5.24872 10.5522 
263 1 47.867 4.63867 2.2806 12.8047 1.53839 -2.772 2.98544 
264 1 47.867 2.71622 5.10082 13.9057 -1.31356 3.94348 6.26501 
265 1 47.867 9.2502 16.3579 -0.0555226 -1.21588 0.0154059 -1.53652 
266 1 47.867 10.9494 17.4867 1.63401 -5.90478 -0.695182 5.39626 
267 1 47.867 12.9685 18.8153 0.292313 4.16711 4.77721 -0.141749 
268 1 47.867 13.2321 -0.575322 1.12454 0.395882 0.687648 -2.38896 
269 1 47.867 13.9279 -2.21737 3.41125 4.45261 -3.00071 -1.55656 
270 1 47.867 14.4365 19.8762 2.27877 -3.23226 -3.77413 1.57751 
271 1 47.867 14.997 0.712079 3.0571 -0.316834 -7.86794 8.23902 
272 1 47.867 16.0225 -1.0216 4.98832 6.50737 3.57341 -0.731808 
273 1 47.867 18.2548 -0.26728 4.14823 -0.0245391 2.86225 0.679056 
274 1 47.867 16.9005 2.46441 4.47454 -7.77 -2.92053 4.02576 
275 1 47.867 17.1715 0.891135 7.28523 0.247152 4.29254 -2.00331 
276 1 47.867 -2.68071 1.53731 5.76199 -1.66464 2.01602 5.25497 
277 1 47.867 -3.71392 4.35255 6.03957 -1.21934 3.67594 3.14365 
278 1 47.867 -3.36926 3.12525 8.89028 3.55285 -3.76584 1.42088 
279 1 47.867 -0.798039 3.10707 7.53782 -1.12183 2.63816 3.68777 
280 1 47.867 -2.41445 5.4485 8.42821 -0.0621625 5.72476 7.03956 
281 1 47.867 -1.36606 4.22539 10.917 -6.27074 3.21999 -5.50085 
282 1 47.867 1.17335 5.04057 9.19708 6.80232 1.58086 -4.12425 
283 1 47.867 -0.486375 7.34939 10.4509 -0.615719 -4.2383 -0.0931089 
284 1 47.867 -0.278718 5.7689 12.8634 0.505112 5.66863 -1.50489 
285 1 47.867 2.02674 6.25173 11.3252 -4.3458 -0.678096 -0.376465 
286 1 47.867 0.903015 8.90863 12.1097 -2.48602 2.48992 5.94497 
287 1 47.867 3.7573 7.99315 13.3491 -1.05809 -1.06632 -3.69291 
288 1 47.867 2.53095 10.9041 13.4911 0.664947 1.20486 -3.37148 
289 1 47.867 16.3311 -0.120839 0.189106 -1.72737 3.68126 -0.728523 
290 1 47.867 17.8287 1.35462 2.18273 5.10938 -0.838717 2.9888 
291 1 47.867 20.2137 1.78373 0.682112 -2.40222 2.1524 -6.44412 
292 1 47.867 18.9662 4.26015 1.10888 1.21953 5.85008 1.75659 
293 1 47.867 -2.48091 3.41175 3.64645 0.660473 0.876031 0.0526801 
294 1 47.867 -0.24045 3.51046 2.23931 6.23767 2.01243 -0.0852891 
295 1 47.867 -1.58726 6.0812 3.05495 1.09681 -2.00503 -0.624264 
296 1 47.867 -1.38263 5.24451 5.64321 -8.73979 2.03797 4.89838 
297 1 47.867 1.34713 5.38587 4.00414 -1.97403 2.36472 5.95576 
298 1 47.867 -0.175865 7.7209 4.7235 -4.05241 6.55427 4.04702 
299 1 47.867 0.0690702 6.49698 7.55093 5.62401 3.30344 2.83175 
300 1 47.867 2.24723 6.89573 5.79212 -4.12433 -3.28707 0.0600394 
301 1 47.867 1.1516 9.71879 6.63645 -1.45048 1.82498 -2.84728 
302 1 47.867 1.953 8.14476 9.16763 3.42839 -6.37531 4.22323 
303 1 47.867 4.33132 8.88023 7.59255 -0.876473 -2.94858 1.29032 
304 1 47.867 2.52191 10.8568 8.81992 1.74056 -2.25028 -1.26072 
305 1 47.867 3.36115 9.58345 11.0634 -3.27963 1.2291 0.218044 
306 1 47.867 5.52394 10.5389 9.56167 -2.82582 8.7242 -1.17423 
307 1 47.867 4.19844 13.3815 9.98613 1.55035 2.13849 3.63665 
308 1 47.867 4.97775 11.3073 12.4346 2.33822 -6.28695 -1.4322 
309 1 47.867 7.29629 12.2501 11.7717 -0.605437 -4.66242 -3.15477 
310 1 47.867 7.84742 -7.5834 12.183 -2.19687 -3.86167 6.17857 
311 1 47.867 11.0724 -8.24189 13.5142 2.75839 -0.291623 3.45427 
312 1 47.867 9.38206 -6.17193 13.7469 6.11661 1.20918 2.18692 
313 1 47.867 8.15224 -3.60778 14.4034 -1.54553 7.2435 0.350487 
314 1 47.867 17.5116 6.86749 1.3638 -3.8919 4.3879 0.440173 
315 1 47.867 19.9373 7.63507 0.320102 -6.43209 -1.32709 -7.90015 
316 1 47.867 18.1848 9.86381 0.930184 2.10035 -5.33606 -1.99452 
317 1 47.867 18.7677 8.27964 3.33569 -5.57149 0.333679 4.71575 
318 1 47.867 -0.601266 9.03773 2.38966 -2.21686 5.23742 0.759808 
319 1 47.867 -1.8958 11.8327 2.97036 1.02135 -7.40713 -4.28815 
320 1 47.867 -1.93067 9.87305 5.06343 -2.6834 0.593737 -2.10776 
321 1 47.867 0.699104 10.9513 4.10199 -2.01698 -0.18712 4.3177 
322 1 47.867 -0.843183 13.6699 4.70402 7.86587 -7.86884 -0.752918 
323 1 47.867 -0.60759 11.992 6.59901 3.50341 3.72165 -0.518428 
324 1 47.867 1.94669 12.781 6.33544 7.6252 4.35012 -1.52995 
325 1 47.867 0.841028 15.2863 6.57399 -0.454346 3.37506 -0.357443 
326 1 47.867 1.01167 13.6611 8.9463 -0.988933 2.33519 -2.1998 
327 1 47.867 3.71319 14.731 7.71512 3.30413 2.82878 -3.65229 
328 1 47.867 3.95475 -5.23018 8.38166 2.62786 1.56555 -0.879364 
329 1 47.867 2.41607 15.1677 10.6998 4.006 6.80348 -1.08297 
330 1 47.867 7.46496 -5.72854 9.53051 3.02152 -1.80649 0.114037 
331 1 47.867 5.83425 -3.77615 10.0308 -11.2609 -2.19368 6.37752 
332 1 47.867 6.68176 -5.30938 12.6024 2.55832 -1.15566 -3.46358 
333 1 47.867 8.83487 -4.57482 11.4132 4.4656 -1.02615 1.13247 
334 1 47.867 7.39716 -2.39738 11.9194 1.2459 5.63886 -3.06572 
335 1 47.867 10.4193 -2.85905 13.1962 4.61531 -0.495768 1.30617 
336 1 47.867 8.55527 -0.643195 13.4456 3.89305 1.07233 -1.51691 
337 1 47.867 7.28067 1.84546 14.0113 3.0064 0.565242 2.46395 
338 1 47.867 16.7589 11.9989 1.29609 -2.28072 1.80039 4.14222 
339 1 47.867 19.1419 13.2524 0.358572 -1.68541 2.98513 -7.81379 
340 1 47.867 17.9391 15.5777 0.837046 3.55177 -6.68205 0.891541 
341 1 47.867 18.0357 13.625 3.30563 -4.16152 2.97881 -5.28495 
342 1 47.867 -1.77724 14.7147 2.18778 -1.00039 -1.44862 1.40673 
343 1 47.867 -2.85059 17.2533 2.68623 -0.288834 2.20183 -2.44586 
344 1 47.867 -2.67968 15.6953 5.00548 -0.965403 -1.00547 0.143065 
345 1 47.867 0.186314 16.4672 3.8333 -2.33332 -6.14799 -0.677955 
346 1 47.867 0.689563 -3.18467 4.84252 4.9515 0.0336039 -2.49719 
347 1 47.867 0.673424 -4.65549 7.37005 -1.14233 3.7201 0.575952 
348 1 47.867 3.77552 -3.88038 6.16805 9.90139 3.21631 -2.72623 
349 1 47.867 2.06654 -1.41075 6.4746 -5.57113 4.12088 3.66212 
350 1 47.867 2.59207 -3.0783 8.85922 -2.27229 -3.18142 -4.90818 
351 1 47.867 4.90679 -2.11973 7.75527 -5.63425 1.62535 -5.08579 
352 1 47.867 3.80667 0.485654 8.35932 -8.36109 -3.33648 -2.80156 
353 1 47.867 4.1878 -1.54924 10.5177 -3.05125 7.10048 -0.553353 
354 1 47.867 6.72785 -0.924873 9.52471 5.6419 4.05793 1.75099 
355 1 47.867 5.46495 1.70609 10.1936 -1.78763 0.427065 -2.91769 
356 1 47.867 5.96501 0.0644406 12.3215 -7.36616 -0.301896 0.513227 
357 1 47.867 8.33118 1.08002 11.3294 4.09372 3.33091 -4.09175 
358 1 47.867 6.80568 3.57819 11.9193 -2.27207 0.730674 -7.83539 
359 1 47.867 9.77556 2.91233 13.0248 3.23635 4.00571 5.60063 
360 1 47.867 8.11538 5.02277 13.964 0.986176 -2.08923 -1.24526 
361 1 47.867 14.317 16.4131 -0.0164804 -1.28532 -0.578662 -3.38429 
362 1 47.867 16.2948 17.8704 1.78037 0.612749 3.64517 6.34299 
363 1 47.867 18.5138 18.7613 0.221476 -1.90158 6.20282 -2.47916 
364 1 47.867 18.9905 -1.00961 1.19238 -8.72463 1.5467 0.0572281 
365 1 47.867 -1.935 -2.01987 3.13863 -0.874806 -7.02765 0.930696 
366 1 47.867 0.465452 -1.69529 2.46758 -9.56468 -5.40672 -2.0322 
367 1 47.867 -1.49723 0.722607 3.12165 -7.33552 -1.80002 0.768577 
368 1 47.867 -0.348748 -0.685607 5.30147 3.32045 -0.375264 0.000812275 
369 1 47.867 1.85873 0.0234459 4.11474 4.22551 -0.328561 1.85711 
370 1 47.867 0.332602 2.24241 4.65019 1.82154 -0.615871 -11.3079 
371 1 47.867 0.710068 0.807538 7.46636 3.83741 -3.11792 8.15061 
372 1 47.867 2.6587 1.50796 6.20219 2.99385 -4.31997 -3.80979 
373 1 47.867 1.28493 4.28922 6.28313 -4.80872 -0.825896 0.0185106 
374 1 47.867 2.12585 2.71696 8.69001 -8.03715 -1.73501 -0.636709 
375 1 47.867 4.78721 3.2515 7.6254 4.48551 -5.60054 -0.567134 
376 1 47.867 3.48107 5.90321 8.10348 -1.43686 2.26602 -2.68011 
377 1 47.867 3.63663 4.21216 10.995 1.28152 2.89649 1.59653 
378 1 47.867 6.00969 4.6626 9.74917 1.21134 -1.67814 0.251308 
379 1 47.867 4.46294 7.48132 9.84917 5.77497 1.17499 -3.02373 
380 1 47.867 5.41397 6.04006 12.3122 4.01343 -2.83584 -2.22163 
381 1 47.867 8.0307 6.27141 11.2905 0.961059 -1.23754 -4.3066 
382 1 47.867 6.22107 8.84196 11.8257 -2.6863 1.57209 -5.44123 
