ITEM: TIMESTEP
0
ITEM: NUMBER OF ATOMS
27
ITEM: BOX BOUNDS xy xz yz pp pp pp
-2.020726 2.309401 -0.8660254
-1.6329932 2.0412416 -0.8660254
-0.7071068 1.4142134 -1.2247449
ITEM: ATOMS id x y z type mass vx vy vz
1 -0.2886751 -0.4082483 -0.7071068 1 47.8670006 -2.11531 -5.7123099 2.0524299
2 -0.5773503 -0.8164966  0.0 1 47.8670006 -2.11531 -5.7123099 2.0524299
3 -0.8660254 -1.2247449  0.7071068 1 47.8670006 -2.11531 -5.7123099 2.0524299
4 -0.5773503  0.4082483  -0.7071068 1 47.8670006 -2.11531 -5.7123099 2.0524299
5 -0.8660254  0.0        0.0 1  47.8670006 -2.11531 -5.7123099 2.0524299
6 -1.1547005  -0.4082483 0.7071068 1 47.8670006 -2.11531 -5.7123099 2.0524299
7 -0.8660254  1.2247449  -0.7071068 1 47.8670006 -2.11531 -5.7123099 2.0524299
8 -1.1547005  0.8164966  0.0 1 47.8670006 -2.11531 -5.7123099 2.0524299
9 -1.4433756  0.4082483  0.7071068 1 47.8670006 -2.11531 -5.7123099 2.0524299
10 0.5773503 -0.4082483  -0.7071068 1 47.8670006 -2.11531 -5.7123099 2.0524299
11 0.2886751 -0.8164966  0.0 1 47.8670006 -2.11531 -5.7123099 2.0524299
12 0.0       -1.2247449  0.7071068 1 47.8670006 -2.11531 -5.7123099 2.0524299
13 0.2886751  0.4082483  -0.7071068 1 47.8670006 -2.11531 -5.7123099 2.0524299
14 0.0        0.0        0.0 1 47.8670006 -2.11531 -5.7123099 2.0524299
15 -0.2886751 -0.4082483 0.7071068 1 47.8670006 -2.11531 -5.7123099 2.0524299
16 0.0        1.2247449 -0.7071068 1 47.8670006 -2.11531 -5.7123099 2.0524299
17 -0.2886751 0.8164966  0.0 1 47.8670006 -2.11531 -5.7123099 2.0524299
18 -0.5773503 0.4082483  0.7071068 1 47.8670006 -2.11531 -5.7123099 2.0524299
19 1.4433756 -0.4082483 -0.7071068 1 47.8670006 -2.11531 -5.7123099 2.0524299
20 1.1547005 -0.8164966  0.0 1 47.8670006 -2.11531 -5.7123099 2.0524299
21 0.8660254 -1.2247449  0.7071068 1 47.8670006 -2.11531 -5.7123099 2.0524299
22 1.1547005  0.4082483 -0.7071068 1 47.8670006 -2.11531 -5.7123099 2.0524299
23 0.8660254  0.0 0.0 1  47.8670006 -2.11531 -5.7123099 2.0524299
24 0.5773503 -0.4082483  0.7071068 1 47.8670006 -2.11531 -5.7123099 2.0524299
25 0.8660254  1.2247449 -0.7071068 1 47.8670006 -2.11531 -5.7123099 2.0524299
26 0.5773503  0.8164966  0.0 1 47.8670006 -2.11531 -5.7123099 2.0524299
27 0.2886751  0.4082483  0.7071068 1 47.8670006 -2.11531 -5.7123099 2.0524299
