ITEM: TIMESTEP
1000
ITEM: NUMBER OF ATOMS
500
ITEM: BOX BOUNDS pp pp pp
-3.4067581806100478e-02 2.0259067581806157e+01
-3.4067581806100478e-02 2.0259067581806157e+01
-3.4067581806100478e-02 2.0259067581806157e+01
ITEM: ATOMS id type mass x y z vx vy vz 
3 1 26.9815 2.05688 0.00288827 2.01377 0.419479 0.885446 0.228956 
4 1 26.9815 0.043328 1.94481 2.03728 -2.78016 -4.71646 0.487053 
21 1 26.9815 0.0639971 4.06628 -0.012482 0.375029 -0.660069 -0.492241 
23 1 26.9815 2.09374 4.09107 1.95314 2.28214 0.652917 1.61427 
52 1 26.9815 1.92358 1.94605 4.05209 0.923791 -2.36225 1.67893 
75 1 26.9815 4.01253 4.05414 4.05389 0.691719 -3.14663 -2.4777 
8 1 26.9815 4.03113 2.03658 1.99411 0.0950191 -2.69215 -0.77132 
6 1 26.9815 6.01826 2.04245 0.0111589 0.486459 -1.45343 -0.146821 
7 1 26.9815 6.05136 0.0314668 1.99928 2.53864 1.37655 0.554151 
12 1 26.9815 8.0558 2.16175 2.06581 -4.78711 -0.660994 1.26056 
27 1 26.9815 5.96395 4.14631 1.92166 -1.91965 -0.131729 -1.6858 
56 1 26.9815 6.05075 1.94454 4.02412 -2.11855 1.0028 -3.48827 
59 1 26.9815 8.05642 0.0516298 4.10774 1.68154 0.240749 -2.71004 
79 1 26.9815 7.98071 4.09441 4.01194 -0.891394 0.319151 -2.6674 
9 1 26.9815 8.11114 0.0419108 -0.000182881 2.46599 0.506253 2.36873 
10 1 26.9815 10.1031 2.03968 0.0733376 0.990858 1.92003 1.00143 
11 1 26.9815 10.0632 0.0756113 2.01846 -1.07036 0.928576 -1.05624 
31 1 26.9815 10.0825 4.04451 2.06523 1.45684 -2.78441 -2.35357 
60 1 26.9815 10.0005 2.06665 3.93061 -0.864894 -0.198738 -2.17822 
16 1 26.9815 12.2196 2.03491 1.99672 0.560819 1.40018 0.986404 
33 1 26.9815 12.1791 4.08499 -0.00633744 0.994813 -2.92298 0.348069 
63 1 26.9815 12.1459 -0.00638263 4.13567 -1.08276 0.943959 -0.48837 
83 1 26.9815 12.1549 3.96235 4.02585 4.03403 -1.20075 -0.405268 
14 1 26.9815 14.1782 2.05522 -0.0052222 -1.94165 -1.64149 -0.420009 
20 1 26.9815 16.115 2.08643 2.08444 0.34891 1.02838 -2.06258 
35 1 26.9815 14.1719 4.07552 2.05008 0.63633 -1.48199 -2.24088 
64 1 26.9815 14.169 1.94472 3.96038 -2.11331 -1.15553 0.666389 
87 1 26.9815 16.1684 3.9935 4.0333 -1.50786 -1.37667 -2.37515 
71 1 26.9815 20.2209 4.07841 3.9327 -1.06709 1.34764 -1.69054 
17 1 26.9815 16.2325 0.0350549 0.0319267 -0.200911 1.9889 -0.502237 
19 1 26.9815 18.2842 0.0460798 2.02752 0.913001 0.919768 -3.1344 
39 1 26.9815 18.2686 3.99819 1.90375 2.21927 2.37121 2.23389 
68 1 26.9815 18.1961 2.06197 4.01944 -0.427279 2.43554 -3.49546 
24 1 26.9815 -0.0220423 6.09889 1.95932 0.582433 1.81776 3.37025 
42 1 26.9815 1.98503 8.11748 2.07953 0.250553 0.0770917 -1.50344 
43 1 26.9815 3.97428 8.23304 -0.00453144 -0.501105 1.67878 -2.38458 
72 1 26.9815 1.93767 6.07294 4.08931 1.24863 -1.80302 1.88918 
93 1 26.9815 4.02089 8.19099 4.00395 1.02525 2.42423 -0.997608 
253 1 26.9815 6.03224 10.047 -0.0299015 -0.16318 -1.1084 -1.57461 
28 1 26.9815 4.03437 6.09679 1.98661 -2.34789 2.32407 -0.696704 
44 1 26.9815 5.9714 8.2025 2.13134 2.34528 2.23938 0.181422 
45 1 26.9815 8.0249 8.10299 0.0327688 1.97258 1.11044 -0.226049 
76 1 26.9815 6.07621 6.10522 4.02915 0.553633 1.1988 1.65751 
32 1 26.9815 8.12057 6.1142 1.99404 -0.127357 -2.19875 -0.515284 
95 1 26.9815 8.13795 8.09724 4.02248 -4.41271 -2.11471 0.872321 
30 1 26.9815 10.1465 6.09823 0.0302329 -1.37041 -0.520857 -1.55074 
46 1 26.9815 10.0612 8.16381 2.03807 1.31895 0.138206 0.0675522 
80 1 26.9815 10.1114 5.974 4.01711 -2.8376 0.134059 1.89832 
36 1 26.9815 12.1763 6.12668 2.08104 -2.9354 2.30368 -2.03681 
97 1 26.9815 12.2977 8.06917 4.14347 -0.830721 3.20903 1.02091 
40 1 26.9815 16.185 6.05511 1.96946 -0.46307 -0.519554 -0.393885 
48 1 26.9815 14.1569 8.13648 1.96665 0.399408 2.20808 -2.06268 
84 1 26.9815 14.244 6.12656 4.04329 0.961107 2.23004 -0.173887 
309 1 26.9815 18.1551 10.0562 4.08869 -4.09374 2.3476 0.629838 
252 1 26.9815 20.1406 10.0513 1.91978 -1.50876 -0.576465 -0.0569298 
91 1 26.9815 20.2234 8.15367 4.03339 -0.292512 -1.23168 -0.9396 
99 1 26.9815 16.2132 8.15156 4.05137 -0.413419 0.571616 3.71392 
50 1 26.9815 18.1977 8.00298 1.9759 1.09183 -2.06379 -0.530325 
88 1 26.9815 18.3049 6.07024 4.02882 2.7539 0.637291 2.9098 
53 1 26.9815 2.03261 -0.0156147 5.98311 -0.739042 1.8069 0.931107 
73 1 26.9815 2.01505 4.00251 6.08141 0.456479 1.00267 1.23684 
102 1 26.9815 2.00764 1.91929 8.02128 -0.474785 -1.03172 1.17588 
136 1 26.9815 2.11906 4.04872 10.0859 -0.704446 -0.769812 1.87345 
58 1 26.9815 4.02585 2.02918 6.0738 0.0215997 -3.17244 0.0640879 
113 1 26.9815 4.08983 4.01894 8.10218 -4.10062 1.3964 -0.756499 
57 1 26.9815 6.0898 0.0239423 6.08231 -0.903819 0.723026 -2.10697 
77 1 26.9815 6.08789 4.04597 6.05686 -0.471306 0.182873 1.12083 
104 1 26.9815 6.0436 1.97576 8.06565 -1.82513 -0.65245 0.953415 
115 1 26.9815 8.08303 3.96507 8.1049 -1.80581 0.446401 2.55472 
129 1 26.9815 4.10836 2.04304 10.0995 2.93087 0.881537 0.0753764 
62 1 26.9815 8.13141 2.03584 6.10664 -0.850909 -0.216301 -2.09308 
105 1 26.9815 8.15955 -0.0154424 8.10627 -0.557306 0.118082 -1.27616 
81 1 26.9815 10.125 3.95447 6.05389 0.956719 2.09639 -0.715102 
106 1 26.9815 10.0715 1.98757 8.12404 -0.19748 1.32276 1.68711 
133 1 26.9815 12.1077 1.91788 10.0373 1.7144 0.114862 0.255282 
66 1 26.9815 12.1911 2.01554 6.12849 0.457711 3.12892 1.25556 
117 1 26.9815 12.183 4.0224 7.97829 0.599211 5.66707 0.0149239 
65 1 26.9815 14.1524 -0.01049 6.06075 -1.09056 0.554146 0.365524 
70 1 26.9815 16.1745 2.08726 6.0245 -0.950265 1.05016 -2.54646 
85 1 26.9815 14.1096 4.00803 6.01453 -2.13377 -0.880246 1.79532 
108 1 26.9815 14.2238 2.02887 8.06347 1.97402 -0.629833 2.29434 
109 1 26.9815 16.1828 -0.00520692 8.07363 2.65993 2.53756 1.58275 
119 1 26.9815 16.1795 3.97674 8.04567 0.0660413 1.63633 -0.173964 
54 1 26.9815 20.2373 2.04831 6.04729 -1.34589 0.457322 0.0178967 
111 1 26.9815 20.2285 3.99295 8.0293 2.70637 0.618786 0.332049 
69 1 26.9815 18.1063 0.0427722 6.0353 -3.03464 -2.67489 2.91408 
89 1 26.9815 18.264 4.07655 6.06636 1.46871 -0.540589 1.13927 
110 1 26.9815 18.1924 1.91795 8.10092 -0.494224 0.737773 -1.52838 
127 1 26.9815 20.2433 1.93604 10.0807 -3.83571 0.672534 -0.620515 
144 1 26.9815 18.2442 3.9828 10.0993 -1.1798 3.70365 0.483993 
122 1 26.9815 3.98608 8.18789 8.03324 0.267113 -0.0570046 -2.14279 
74 1 26.9815 0.0508644 6.03007 5.85422 -1.79398 3.64788 0.364881 
92 1 26.9815 2.07583 8.12756 5.9965 3.12158 0.660749 -0.2889 
112 1 26.9815 2.12492 6.00608 7.98296 -1.51273 1.89977 -1.15983 
121 1 26.9815 0.0307714 8.07743 8.03243 -0.836629 -0.0198268 -1.89397 
306 1 26.9815 8.06548 10.0986 6.03063 -1.54623 -0.996293 -1.20406 
304 1 26.9815 4.06694 10.096 6.0733 3.77419 -1.01211 2.17436 
123 1 26.9815 7.99821 8.03413 8.0348 -1.43613 0.663765 0.0927157 
114 1 26.9815 6.01934 5.96693 8.05563 -3.84292 0.537142 0.752382 
94 1 26.9815 6.04956 8.09299 6.08756 0.606973 -1.71597 1.31985 
78 1 26.9815 4.11139 6.11358 6.00389 -1.98292 1.92607 -0.945093 
147 1 26.9815 5.98289 8.08053 10.0747 -0.18049 4.24733 -0.289374 
378 1 26.9815 7.9556 10.052 10.0909 1.83503 -0.143968 -2.82 
353 1 26.9815 10.1444 9.97695 8.08079 1.3647 -0.557693 -0.869941 
86 1 26.9815 12.1404 6.03849 6.11573 0.362047 0.671457 1.56614 
82 1 26.9815 8.08715 6.0451 6.01791 -0.293388 -0.79085 5.33674 
124 1 26.9815 12.0822 7.93024 8.09968 0.639439 -0.257328 1.80974 
116 1 26.9815 10.1201 5.97798 8.06801 3.59907 2.1751 0.584165 
96 1 26.9815 10.0664 8.01381 6.12283 -1.60621 -0.32088 -0.576163 
354 1 26.9815 14.1974 10.0879 8.21058 -1.60103 -0.411893 -0.278712 
125 1 26.9815 16.1959 8.02785 8.03944 1.51028 -1.95723 0.360031 
118 1 26.9815 14.2018 6.03798 8.126 1.94912 1.70451 -1.53777 
98 1 26.9815 14.2148 8.09129 6.19379 -2.03492 0.56212 2.78677 
90 1 26.9815 16.1872 6.10624 6.0683 -0.680228 -1.09675 0.222045 
143 1 26.9815 12.2208 6.00224 10.0608 0.682138 1.97971 -2.52242 
379 1 26.9815 12.1852 10.0586 10.1077 -0.289587 -0.6198 -0.206139 
355 1 26.9815 18.2047 10.1096 8.1295 -0.990083 0.0828909 -0.533087 
120 1 26.9815 18.2616 6.08595 8.04717 -1.1404 -1.4705 1.68456 
100 1 26.9815 18.2615 7.95887 6.03584 -1.4357 -0.567701 -0.191698 
137 1 26.9815 20.2464 6.07243 10.0094 2.95581 2.08452 1.00062 
150 1 26.9815 18.2414 8.025 10.0927 2.22993 0.339088 -1.52605 
151 1 26.9815 -0.00565045 0.00302259 12.1229 -2.77175 0.657667 2.18402 
152 1 26.9815 1.95417 2.04153 12.0677 1.66346 1.03109 1.28442 
153 1 26.9815 2.06078 -0.0180506 14.0809 -0.768808 -2.53773 -1.41039 
173 1 26.9815 1.94798 4.01706 14.1571 0.591299 -0.604833 1.71265 
158 1 26.9815 4.06618 2.07749 14.108 -0.572922 -0.68179 -2.0567 
175 1 26.9815 4.05233 3.93981 12.1949 -3.01814 2.40504 -1.25934 
138 1 26.9815 6.04898 4.03057 10.1356 0.908751 -0.633934 1.51402 
156 1 26.9815 6.05531 2.03856 12.0657 -0.527108 -0.758959 1.40215 
177 1 26.9815 6.07463 3.99547 14.2886 0.83969 -0.0496628 1.44305 
131 1 26.9815 8.09388 1.98541 10.1567 -0.919054 -0.589938 1.03689 
159 1 26.9815 8.12584 0.0207836 12.1565 0.397229 -0.380447 -1.36451 
162 1 26.9815 8.08861 1.99163 14.0573 2.85632 -1.24932 -1.70648 
179 1 26.9815 8.12078 3.99256 12.128 2.47137 -1.68352 -3.64168 
130 1 26.9815 10.1236 -0.0167636 10.1986 1.13185 -3.31315 -0.925034 
140 1 26.9815 10.1047 4.02545 10.1678 -1.24566 0.989996 1.73709 
160 1 26.9815 10.1922 1.98602 12.1946 1.1802 1.77218 0.328705 
181 1 26.9815 10.1213 4.01405 14.153 -0.501936 -0.780429 -0.958157 
166 1 26.9815 12.2656 1.93692 14.2159 0.435455 -3.93769 -0.297226 
183 1 26.9815 12.1443 3.98779 12.1544 1.32973 -0.114992 2.85035 
135 1 26.9815 16.153 2.00658 10.2098 0.963222 1.30553 -0.785727 
142 1 26.9815 14.1335 3.96437 10.1292 -0.592973 -0.0625124 1.01703 
164 1 26.9815 14.1574 2.0089 12.1425 -0.980109 -3.45297 0.962419 
170 1 26.9815 16.1505 1.99755 14.2757 2.55986 2.26699 -1.8052 
185 1 26.9815 14.2405 4.04648 14.1703 -1.24403 -0.605985 -3.31921 
154 1 26.9815 20.1954 2.05198 14.208 0.790065 -0.244697 -2.00407 
171 1 26.9815 20.2051 4.02399 12.1469 0.342679 1.88725 0.523916 
187 1 26.9815 16.3321 4.09856 12.1661 0.0388531 -2.78569 1.4705 
168 1 26.9815 18.2136 1.96479 12.1482 -1.35951 3.001 -0.282163 
189 1 26.9815 18.1985 4.03724 14.168 -0.836577 -0.881565 -1.82214 
139 1 26.9815 3.97768 6.0789 10.127 0.0155892 3.15011 2.15633 
146 1 26.9815 1.99753 8.13567 10.1209 2.75612 1.85642 0.226018 
172 1 26.9815 1.99945 5.94871 12.1197 -1.01935 -0.14603 1.10978 
174 1 26.9815 -0.0250418 6.06834 14.1584 1.54205 1.84799 -1.60658 
178 1 26.9815 4.00698 5.98074 14.1928 1.001 0.481187 1.7556 
191 1 26.9815 -0.0336353 8.03723 12.1031 2.14302 2.17972 -2.98202 
192 1 26.9815 2.0194 8.08052 14.1277 -2.4608 -2.85898 2.98628 
193 1 26.9815 3.9702 8.08617 12.1378 2.45225 1.58318 1.56363 
141 1 26.9815 8.0357 6.05926 10.1179 -0.193906 0.998827 0.0669864 
176 1 26.9815 5.99308 6.0586 12.1829 -0.567278 -0.628395 1.36845 
182 1 26.9815 8.00511 6.02489 14.2207 -0.301324 -3.14236 -1.44074 
194 1 26.9815 6.07621 8.08501 14.1207 0.179322 -1.01838 4.12204 
195 1 26.9815 8.1275 7.92568 12.207 -2.44276 -1.65192 2.6596 
148 1 26.9815 10.0918 8.08086 10.128 2.16557 -2.97233 -2.91867 
180 1 26.9815 10.1547 5.99454 12.183 0.449838 2.37228 3.84857 
196 1 26.9815 10.1879 8.13777 14.25 -5.40616 -1.20165 0.762069 
197 1 26.9815 12.0818 8.13972 12.1768 0.39782 1.46219 -1.11412 
408 1 26.9815 12.0498 10.0852 14.2564 -1.62321 1.2288 -1.40162 
406 1 26.9815 8.10301 10.0553 14.1764 -1.07245 3.91997 -0.617337 
405 1 26.9815 10.1531 10.1102 12.1118 0.797095 -0.514831 -0.527065 
407 1 26.9815 14.2415 10.0927 12.0965 -1.91845 -1.39625 -0.861182 
186 1 26.9815 12.1519 6.05292 14.1897 2.07009 2.71173 -2.93492 
149 1 26.9815 14.1669 8.0033 10.1975 0.693469 2.52941 -1.35815 
184 1 26.9815 14.253 6.03342 12.1713 0.402657 -0.421315 1.46332 
198 1 26.9815 14.0705 8.0713 14.1659 -2.79351 -1.32785 0.343705 
199 1 26.9815 16.1871 8.00255 12.1982 0.377475 -3.27743 -4.35972 
380 1 26.9815 16.1824 10.0579 10.155 -0.501126 1.73341 1.51307 
409 1 26.9815 18.1071 10.0471 12.1315 -1.3886 -0.611984 0.780573 
410 1 26.9815 16.2521 10.1069 14.2623 0.856904 1.44879 -0.905358 
145 1 26.9815 16.3088 6.03037 10.1216 0.422022 -3.24726 -1.75551 
190 1 26.9815 16.2497 5.9955 14.2187 0.248081 -1.59373 1.394 
188 1 26.9815 18.3372 6.11145 12.1276 0.742529 -2.4513 -2.82864 
200 1 26.9815 18.0708 8.08326 14.2688 1.6883 -3.61644 2.02126 
202 1 26.9815 1.985 1.96302 16.1296 -0.864117 -0.563243 2.6181 
204 1 26.9815 0.0298602 2.01371 18.0929 -0.201052 -0.663519 -1.33022 
205 1 26.9815 4.01343 0.0274477 16.1303 -0.329655 1.99665 -0.712922 
221 1 26.9815 0.0657116 4.10825 16.1707 -0.821597 0.751294 -0.142779 
223 1 26.9815 2.05452 3.98354 18.1005 2.07203 -1.12395 1.46907 
1 1 26.9815 -0.0180422 0.0782993 20.2222 -0.329039 -2.55027 1.09847 
2 1 26.9815 2.10961 2.01944 20.1251 0.891528 2.40184 -0.37278 
5 1 26.9815 4.02168 0.0217318 20.2087 -0.89066 0.846324 3.64374 
208 1 26.9815 4.03408 1.97404 18.1195 -0.0945149 -0.876151 -1.25516 
225 1 26.9815 4.03503 3.92911 16.1874 0.507294 3.75009 -1.05665 
206 1 26.9815 6.13898 1.94691 16.1601 -0.0632181 4.1339 -0.385454 
207 1 26.9815 6.09437 0.0134233 18.1825 -0.40141 -1.5277 -4.9477 
209 1 26.9815 8.06642 -0.0114645 16.1545 2.39433 -3.1801 -0.953688 
227 1 26.9815 6.01 3.96559 18.1744 0.229951 0.577285 0.629855 
229 1 26.9815 8.03121 4.04964 16.2745 -1.35516 0.71742 2.23146 
25 1 26.9815 4.03211 4.01446 20.2123 1.60604 -3.35169 2.98187 
29 1 26.9815 8.06877 4.05677 20.2173 -0.101085 -2.42807 -0.203391 
212 1 26.9815 8.15227 2.01319 18.2535 1.05147 0.288913 1.19256 
210 1 26.9815 10.1186 1.96708 16.2693 1.56506 -2.32441 0.155029 
211 1 26.9815 10.1741 0.00591968 18.2255 -0.462925 -0.0272026 0.691123 
231 1 26.9815 10.1146 4.00559 18.2751 0.954474 0.529499 0.203209 
216 1 26.9815 12.1794 1.96264 18.291 -2.04696 -1.64816 0.866713 
233 1 26.9815 12.2515 4.01179 16.2802 2.29879 0.358084 -1.39495 
214 1 26.9815 14.1502 1.93914 16.3017 0.30599 -1.35725 0.480385 
235 1 26.9815 14.2398 4.07499 18.283 -4.18872 1.10541 -0.129542 
220 1 26.9815 16.2202 1.93481 18.2254 -4.14664 0.38856 2.50291 
237 1 26.9815 16.2315 4.04302 16.2553 -3.70559 1.12839 -0.542069 
218 1 26.9815 18.3283 2.03643 16.1633 -0.0351776 0.860602 1.51214 
219 1 26.9815 18.1792 0.0257628 18.2145 -0.37395 -0.698274 -0.846661 
239 1 26.9815 18.32 3.98447 18.2294 -0.677865 -0.372513 2.65389 
37 1 26.9815 16.2485 4.0448 20.2369 0.566674 0.324588 2.00703 
18 1 26.9815 18.247 1.97563 20.1538 2.88467 -0.25196 -2.2194 
451 1 26.9815 1.99105 10.0859 16.2091 -0.335369 -0.36418 -0.81912 
243 1 26.9815 3.97939 8.16974 16.2971 2.28281 0.743586 -0.657286 
242 1 26.9815 2.01447 8.06357 18.1768 0.931609 1.48167 -2.38934 
222 1 26.9815 2.01223 6.13628 16.1865 2.66871 1.03333 -0.837978 
224 1 26.9815 -0.00326228 6.04305 18.3043 2.21931 -0.874774 -0.0762915 
22 1 26.9815 2.11314 6.09482 20.2556 -2.26444 0.910044 0.445747 
453 1 26.9815 6.20192 10.0682 16.1607 -0.587567 -1.08782 0.326251 
244 1 26.9815 6.01746 8.13099 18.1874 1.27426 2.50469 -3.35993 
232 1 26.9815 8.08044 6.02806 18.2068 0.106471 -1.4403 0.389581 
226 1 26.9815 6.00671 6.03982 16.1438 0.754533 1.27847 0.736061 
228 1 26.9815 4.04438 6.07318 18.1931 -1.30206 -0.496347 0.0625669 
26 1 26.9815 5.99581 6.0747 20.1484 -0.276554 1.84132 1.38255 
458 1 26.9815 12.1406 10.0469 18.2808 -0.212716 -2.07294 0.447912 
246 1 26.9815 10.0564 8.12313 18.3168 4.01301 -0.675619 -0.353022 
236 1 26.9815 12.1292 6.04973 18.2116 2.12698 2.05377 -0.776914 
230 1 26.9815 10.1324 5.94659 16.1573 0.89766 0.31772 -0.445054 
245 1 26.9815 8.20746 8.10358 16.19 1.33283 -2.19418 -0.371424 
249 1 26.9815 16.1029 7.96237 16.2027 3.03395 -2.37826 0.987475 
248 1 26.9815 14.1423 8.0727 18.1584 -1.13822 0.711873 -0.03279 
240 1 26.9815 16.1524 6.09227 18.1805 -1.60895 0.251129 2.03528 
234 1 26.9815 14.2488 6.00265 16.092 -2.58834 2.70414 -2.5714 
247 1 26.9815 12.1848 8.18165 16.2263 -3.2892 1.95113 1.50385 
47 1 26.9815 12.166 8.02584 20.2485 1.01773 -0.378559 -1.83557 
34 1 26.9815 14.1737 6.01539 20.1851 -0.462123 -0.794178 -1.3242 
250 1 26.9815 18.266 8.12104 18.3232 3.26998 -0.459794 0.444724 
459 1 26.9815 18.1053 10.1064 16.2269 0.876034 -0.484377 -0.567928 
238 1 26.9815 18.2318 6.09083 16.2083 0.290056 -0.646632 -1.04272 
452 1 26.9815 20.2431 10.0815 18.2157 1.7332 1.534 0.428018 
241 1 26.9815 20.1815 8.14759 16.2372 -1.09452 -2.27907 2.38804 
259 1 26.9815 18.2297 10.0781 20.1905 0.563891 -1.23483 -0.383379 
41 1 26.9815 20.2539 8.1002 20.1659 -0.835739 1.84775 -0.0469914 
49 1 26.9815 16.2072 8.1248 20.2104 0.785325 1.6176 -2.22514 
38 1 26.9815 18.2376 6.0865 20.2149 0.244479 -1.7236 -1.44072 
254 1 26.9815 4.01 10.2044 2.05175 0.157824 1.35199 -0.477773 
263 1 26.9815 1.94535 12.107 1.99804 -2.68074 -2.71875 -0.629931 
301 1 26.9815 1.90287 10.1471 4.0672 -2.92894 1.24922 0.270069 
311 1 26.9815 -0.0113891 12.0957 4.08869 2.54147 1.38164 3.38646 
312 1 26.9815 2.01536 14.2657 4.01671 -0.657074 -1.93062 -0.151621 
315 1 26.9815 3.93722 12.1443 4.07799 0.0763926 -1.48405 -0.823515 
268 1 26.9815 4.06985 14.174 2.05756 -1.44498 -1.62125 0.965421 
267 1 26.9815 6.04097 12.0766 1.96717 1.12597 0.486206 -2.56103 
272 1 26.9815 7.95269 14.1853 1.9054 -0.611871 -0.0274176 1.29399 
303 1 26.9815 6.13808 10.1413 4.04312 0.445321 0.0173705 1.00039 
316 1 26.9815 6.0179 14.0621 4.06012 2.6519 -0.921587 -1.222 
319 1 26.9815 8.07992 12.1441 3.98221 0.614863 2.15291 2.47173 
256 1 26.9815 8.10633 10.1444 2.03267 1.91247 -1.85981 0.212875 
255 1 26.9815 10.1007 10.1553 0.0243071 -0.99632 -0.026403 -3.09419 
258 1 26.9815 12.1394 10.1136 2.04724 -0.849047 2.24884 -1.99258 
270 1 26.9815 10.1042 14.1991 0.0592122 0.049309 2.20136 -0.125285 
271 1 26.9815 10.0593 12.1185 2.04337 0.0583787 -1.91452 -1.44788 
276 1 26.9815 12.1314 14.1795 2.0082 3.39137 -1.39825 -0.0831631 
305 1 26.9815 10.2 10.1148 4.07878 2.30296 -0.986826 3.29093 
320 1 26.9815 10.0745 14.1846 4.05368 0.308971 -0.548152 0.277808 
323 1 26.9815 12.1392 12.1477 4.03715 -2.116 1.85526 0.801677 
257 1 26.9815 14.2481 10.1168 -0.0173449 0.588278 -0.029732 -0.28342 
260 1 26.9815 16.1791 10.1281 1.94211 -2.20452 0.854243 -1.52135 
274 1 26.9815 14.2326 14.169 0.00474661 -0.603085 -3.36411 -0.325506 
275 1 26.9815 14.1641 12.1781 2.00452 2.99928 0.629778 -0.00737054 
307 1 26.9815 14.1482 10.1588 4.09773 -0.577661 2.18279 0.646383 
324 1 26.9815 14.1758 14.1969 4.10273 -1.21529 -3.55765 1.00679 
261 1 26.9815 20.2428 12.2106 -0.0263992 0.301602 -1.19993 0.103431 
264 1 26.9815 20.227 14.153 1.95417 -2.41308 0.453862 -1.72152 
277 1 26.9815 16.2122 12.0874 -0.01581 3.2983 -1.47988 -1.54726 
280 1 26.9815 16.26 14.2137 1.96346 1.04022 0.168928 -1.99841 
327 1 26.9815 16.2088 12.1822 4.04457 -0.903108 1.21801 1.36246 
278 1 26.9815 18.128 14.1972 -0.00543305 0.77157 1.08678 1.99433 
279 1 26.9815 18.2217 12.1421 2.02131 2.04064 0.476109 0.999138 
328 1 26.9815 18.1634 14.2093 4.04216 0.800943 0.00362534 -1.95953 
55 1 26.9815 4.01272 20.2435 4.08796 0.196843 -3.0808 -0.562679 
282 1 26.9815 2.03997 18.2803 0.0419851 -1.19962 2.38136 2.17618 
283 1 26.9815 1.86749 16.2153 1.92655 -0.366592 2.43884 -1.88287 
288 1 26.9815 3.95458 18.2984 2.05758 0.576033 2.90737 0.383752 
332 1 26.9815 2.0447 18.2516 3.95334 -0.733428 -2.54955 0.458771 
335 1 26.9815 4.0617 16.2126 3.98146 1.0901 -1.01489 1.36293 
286 1 26.9815 6.07788 18.2853 0.0647763 0.506899 -2.96166 1.86892 
287 1 26.9815 6.0167 16.1976 1.8455 1.93271 -2.27325 0.297292 
289 1 26.9815 8.03505 16.2052 -0.0140783 1.6826 -2.02859 -4.65081 
292 1 26.9815 8.04824 18.2835 2.05352 -0.830965 -0.6472 0.667104 
336 1 26.9815 6.04553 18.255 3.96795 2.09076 -1.87482 -0.667842 
339 1 26.9815 7.94306 16.2253 3.97405 -0.287367 -2.45787 0.747572 
290 1 26.9815 10.0373 18.2885 0.0100846 0.932702 2.92596 -0.12202 
291 1 26.9815 10.1715 16.2175 2.03907 -1.1487 0.883226 0.763572 
293 1 26.9815 12.0894 16.2153 0.0202964 1.03924 0.875747 3.31523 
340 1 26.9815 10.1396 18.2257 4.0852 -1.01346 -0.755753 2.44455 
343 1 26.9815 12.0987 16.2034 4.00845 1.62713 -1.00808 -2.1617 
67 1 26.9815 16.1942 20.2559 3.9825 0.320035 0.567698 0.529775 
15 1 26.9815 14.2372 20.2386 1.99374 0.819411 1.02731 2.88644 
296 1 26.9815 12.1891 18.2768 2.08238 -1.26223 -1.50836 0.132983 
295 1 26.9815 14.2016 16.1389 2.00918 -0.700359 2.56555 -0.104415 
300 1 26.9815 16.2001 18.2923 1.96784 -0.625896 -2.45261 0.177621 
344 1 26.9815 14.1988 18.2112 4.07851 -0.556889 -0.695791 2.82116 
284 1 26.9815 20.1727 18.2942 1.98662 -1.33655 -0.990708 -0.864985 
51 1 26.9815 20.2156 20.2258 4.05067 -2.38303 -2.2648 1.43792 
331 1 26.9815 20.1741 16.2483 3.94174 -1.14823 0.384274 0.137898 
297 1 26.9815 16.206 16.2264 -0.0163737 3.06767 1.09216 -0.613439 
347 1 26.9815 16.2037 16.21 3.94609 1.27634 -1.69695 -2.75712 
299 1 26.9815 18.2119 16.2928 1.9775 -0.85479 -1.17721 -2.12529 
348 1 26.9815 18.1641 18.2312 4.02337 -0.208938 0.710982 -0.199174 
313 1 26.9815 1.9894 12.1914 6.08724 1.16215 -0.3385 -0.537237 
314 1 26.9815 0.0456191 14.2898 6.0345 2.69445 2.27472 3.43629 
351 1 26.9815 1.89872 10.1688 8.05487 1.62891 -1.08413 2.11934 
357 1 26.9815 1.96999 14.1847 8.06638 -0.867499 1.40922 -1.39567 
381 1 26.9815 1.9482 12.1256 10.0078 0.119694 -1.69779 -1.05243 
384 1 26.9815 4.00592 14.1406 10.1036 -0.0153967 1.9941 -0.336536 
318 1 26.9815 4.0732 14.2421 6.0698 -0.242665 2.41917 -2.65887 
358 1 26.9815 4.11605 12.1558 8.11528 -1.59211 1.54423 1.08496 
317 1 26.9815 6.14085 12.1705 6.03982 2.65256 2.09098 0.769755 
352 1 26.9815 5.97838 10.1574 8.03887 -1.85888 -3.4492 3.00111 
359 1 26.9815 6.02424 14.1677 8.08005 -0.583404 -1.45753 -1.32116 
360 1 26.9815 8.07119 12.0948 8.14514 1.65462 0.503887 1.61499 
377 1 26.9815 4.04634 10.2249 10.0956 -1.88723 0.176638 1.70632 
322 1 26.9815 8.11618 14.2425 5.96981 0.314321 1.09164 1.81733 
321 1 26.9815 10.0706 12.111 6.07393 -2.56169 -0.187671 -2.27462 
326 1 26.9815 12.04 14.074 5.98578 -1.34559 0.369206 1.56632 
361 1 26.9815 10.0858 14.0771 8.07286 2.6688 0.245799 0.718662 
388 1 26.9815 12.0908 14.063 10.0874 -1.03243 0.575119 2.10076 
308 1 26.9815 12.2012 10.12 6.03764 -0.925571 0.963947 0.557827 
362 1 26.9815 12.1876 12.119 8.05944 -0.406739 1.11071 -1.24059 
325 1 26.9815 14.2579 12.2412 6.09101 -0.747344 0.653633 1.92786 
363 1 26.9815 14.1926 14.2495 8.15405 1.64298 1.46461 1.52604 
364 1 26.9815 16.1845 12.2439 8.0855 0.621636 1.23594 -0.604027 
302 1 26.9815 20.1418 10.1847 6.04518 -2.80287 -1.21584 -0.288874 
356 1 26.9815 20.2101 12.1849 7.97191 1.89872 -0.687044 -3.52829 
310 1 26.9815 16.2105 10.174 6.05468 2.46121 -1.06431 -0.723119 
330 1 26.9815 16.2364 14.1824 6.07186 2.3719 -1.31476 0.722813 
329 1 26.9815 18.0777 12.1742 5.94471 -0.736049 3.18149 1.4148 
365 1 26.9815 18.1841 14.1183 8.01496 0.103264 0.550809 2.60977 
376 1 26.9815 20.2291 10.1157 10.0953 3.43175 3.42729 -0.912067 
382 1 26.9815 20.2252 14.1156 9.98348 1.42115 1.64723 2.85021 
389 1 26.9815 18.1435 12.1426 10.0448 -2.58386 -0.139746 -2.13613 
101 1 26.9815 0.0148037 20.2396 8.00621 -0.42119 -3.03317 0.239842 
333 1 26.9815 2.02836 16.2786 5.95638 1.19649 4.0152 -3.21853 
367 1 26.9815 2.05316 18.1878 7.90209 -1.11904 2.81501 -0.885559 
368 1 26.9815 4.00715 16.1881 8.05049 1.04981 -3.10187 -2.14356 
392 1 26.9815 0.040726 18.254 10.0395 0.225928 -1.86358 2.89388 
394 1 26.9815 3.96946 18.1603 9.99873 0.339032 0.968796 -2.17994 
126 1 26.9815 1.99104 20.2432 10.1014 -2.46954 0.358501 1.55735 
103 1 26.9815 4.10603 20.2037 8.12653 -1.5284 -1.88812 -0.258429 
370 1 26.9815 8.0281 16.2668 8.07839 4.60678 -2.06137 -2.29836 
338 1 26.9815 4.06735 18.3014 6.0317 1.89631 -0.529191 -0.17402 
337 1 26.9815 6.09076 16.1703 5.95548 -0.330294 -2.99611 -2.54334 
342 1 26.9815 8.07838 18.1903 6.06882 -0.926528 -0.989816 3.35558 
369 1 26.9815 6.1373 18.1885 8.10541 -1.64693 -2.68393 1.37526 
61 1 26.9815 10.1967 20.2407 6.11067 0.222641 -0.0462108 -0.506244 
341 1 26.9815 10.0613 16.1747 6.06749 -1.19485 -1.45448 1.96234 
372 1 26.9815 12.0888 16.1463 8.19134 -0.659029 1.79498 -0.320562 
371 1 26.9815 10.0049 18.2478 8.16498 -0.650861 0.529275 0.00413349 
395 1 26.9815 10.0593 16.1722 10.0115 2.6628 -0.76347 -0.447734 
107 1 26.9815 12.1857 20.2167 8.0845 1.97543 1.43689 -0.762658 
373 1 26.9815 14.2499 18.1047 8.16106 -2.07963 2.14034 2.59443 
350 1 26.9815 16.1969 18.217 6.03404 -2.34473 0.957543 3.04084 
345 1 26.9815 14.1085 16.0992 6.07314 -1.32024 -2.1931 1.79279 
346 1 26.9815 12.1468 18.2178 6.17041 -3.78902 -2.98725 -1.32267 
132 1 26.9815 14.1946 20.2107 10.0966 -0.4766 -3.39608 -0.776862 
375 1 26.9815 18.1291 18.226 8.06854 3.82436 -4.61787 1.20159 
349 1 26.9815 18.2216 16.3192 5.96702 -0.382272 -2.56337 1.28556 
374 1 26.9815 16.2658 16.1477 8.13178 2.1663 0.154008 1.20946 
334 1 26.9815 20.2423 18.272 5.99202 -0.743627 -0.105867 -3.11407 
366 1 26.9815 20.1915 16.1756 8.05723 0.245036 -3.47356 0.946798 
134 1 26.9815 18.2565 20.1423 10.111 -0.770834 2.16246 0.661182 
399 1 26.9815 18.2334 16.2277 10.105 2.70281 -0.301137 3.44253 
401 1 26.9815 1.9665 10.1307 12.0932 0.132119 -4.50749 -2.79584 
404 1 26.9815 4.02014 10.1189 14.2369 1.52811 3.71941 0.986152 
412 1 26.9815 1.90401 14.1597 12.1442 -1.27212 -0.444979 -0.465919 
413 1 26.9815 1.96975 12.0566 14.1089 -1.18196 3.21376 -1.43959 
418 1 26.9815 3.96753 14.1937 14.1329 -3.51866 2.60408 -0.879352 
415 1 26.9815 4.11143 12.093 12.1789 -0.355078 -2.11495 1.39601 
383 1 26.9815 6.08394 12.1317 10.1598 0.0148644 -1.7844 -1.1339 
386 1 26.9815 8.05838 14.195 10.1248 -2.62107 -0.0749078 0.406243 
403 1 26.9815 6.02996 10.1174 12.1455 0.920067 -1.11885 -0.830606 
416 1 26.9815 6.03721 14.171 12.2006 -0.400752 -2.14586 0.373258 
417 1 26.9815 6.06629 12.1379 14.1468 -1.72371 0.521621 -1.3352 
422 1 26.9815 8.08228 14.2274 14.156 -1.87623 0.471584 2.2659 
419 1 26.9815 8.21765 12.0297 12.1951 1.75725 -2.14815 2.15841 
385 1 26.9815 10.0621 12.0726 10.1494 -0.668863 0.169836 -0.316649 
420 1 26.9815 10.075 14.0709 12.1851 -1.83251 1.6059 0.867469 
421 1 26.9815 10.2555 12.1481 14.1535 -2.55512 0.11924 1.4982 
426 1 26.9815 12.0925 14.1903 14.2628 0.424154 0.944661 -3.82342 
423 1 26.9815 12.2145 12.0692 12.1703 -2.33443 -1.94621 -3.33277 
387 1 26.9815 14.1759 12.207 10.1395 2.34376 -1.34246 0.150151 
424 1 26.9815 14.2326 14.1515 12.2181 0.471948 0.405481 1.21655 
425 1 26.9815 14.2363 12.2266 14.1537 -0.274457 2.36668 1.71298 
402 1 26.9815 20.2517 10.1641 14.1362 -1.18985 0.0460701 1.92673 
411 1 26.9815 20.2411 12.165 12.0793 -0.75181 1.15696 -0.109563 
414 1 26.9815 20.2274 14.1281 14.2211 1.98297 1.02093 0.721964 
390 1 26.9815 16.2432 14.1193 10.1912 -0.776914 -1.50117 -2.10537 
427 1 26.9815 16.2625 12.0547 12.097 0.304798 -0.517931 -1.52422 
430 1 26.9815 16.2833 14.1037 14.187 0.895442 1.28752 -1.13289 
428 1 26.9815 18.2278 14.1495 12.1602 1.27338 1.10964 0.268078 
429 1 26.9815 18.2032 12.0433 14.1821 0.186835 -2.75487 1.21653 
391 1 26.9815 2.00113 16.1347 10.1209 -0.663812 0.835787 2.52167 
431 1 26.9815 0.0610484 16.1667 12.0732 0.542767 1.55929 1.99013 
432 1 26.9815 2.01617 18.2242 12.157 0.80383 0.0850442 -0.45356 
433 1 26.9815 2.00498 16.2153 14.1648 -0.339844 1.41824 -1.5266 
434 1 26.9815 0.00120856 18.2 14.1032 -0.435929 -0.725332 0.277652 
438 1 26.9815 4.02346 18.2104 14.1531 -2.83996 -1.37047 0.389364 
435 1 26.9815 4.03824 16.1988 12.1356 -1.04172 -0.115343 2.90442 
393 1 26.9815 5.98064 16.2296 10.152 -0.0531761 -0.565058 2.38616 
436 1 26.9815 6.07066 18.2518 12.1917 -1.08427 -3.30676 -2.32966 
437 1 26.9815 5.98258 16.0833 14.1934 -4.09609 -1.71416 -1.83312 
439 1 26.9815 8.06179 16.2625 12.2403 0.71383 0.660852 1.58201 
442 1 26.9815 8.0383 18.2643 14.1739 0.76799 2.05949 -2.51275 
157 1 26.9815 6.1306 20.2232 14.1404 -2.43377 2.3132 -0.465275 
128 1 26.9815 6.15292 20.2371 10.1497 2.87766 -1.19837 0.0343118 
155 1 26.9815 4.05634 20.2199 12.0923 -0.88374 0.727311 -3.34258 
396 1 26.9815 8.15558 18.2742 10.1392 -0.125564 -0.402861 -2.92783 
161 1 26.9815 10.165 20.2128 14.155 -0.877048 -4.92181 -1.69007 
398 1 26.9815 12.0743 18.1702 10.1519 -0.510148 2.70871 0.684137 
440 1 26.9815 9.99854 18.1424 12.173 2.72451 1.27553 0.459146 
441 1 26.9815 10.1033 16.2314 14.2878 0.728784 0.0961749 3.96028 
443 1 26.9815 12.052 16.0306 12.1903 1.80349 2.57336 0.970677 
446 1 26.9815 12.076 18.102 14.0013 -0.62934 0.767069 -0.907975 
167 1 26.9815 16.1483 20.2261 12.1662 1.73119 -2.12258 -1.59134 
165 1 26.9815 14.2549 20.078 14.2163 2.72771 1.27905 1.41198 
163 1 26.9815 12.1629 20.1571 12.1692 0.38201 0.536332 -0.603506 
397 1 26.9815 14.1552 16.2279 10.1323 -1.78925 0.993558 -0.343024 
400 1 26.9815 16.155 18.2567 10.1408 1.70513 -2.20705 -2.43119 
444 1 26.9815 14.2139 18.0697 12.2685 -0.190631 -0.680542 0.36978 
445 1 26.9815 14.2244 16.1571 14.1658 -0.910202 -0.276338 1.43803 
447 1 26.9815 16.1932 16.1595 12.1419 1.21906 0.927468 -1.54376 
169 1 26.9815 18.177 20.2056 14.1959 2.63501 0.773952 0.156657 
450 1 26.9815 16.2766 18.1672 14.2029 -0.044728 -0.442716 -3.09746 
448 1 26.9815 18.1855 18.2357 12.1689 6.37959 0.481111 -0.146351 
449 1 26.9815 18.146 16.1298 14.1997 2.2175 -2.61738 0.386014 
454 1 26.9815 4.02045 10.1828 18.2205 -0.511056 -0.0266021 1.37361 
462 1 26.9815 1.97846 14.1268 16.1278 -2.73092 -3.16416 -2.60714 
463 1 26.9815 1.92002 12.1261 18.2467 1.18676 -1.45349 -1.27329 
465 1 26.9815 3.99271 12.1228 16.2434 -0.317971 -0.436772 0.283922 
468 1 26.9815 3.97914 14.205 18.188 -2.65805 0.183316 -0.966406 
251 1 26.9815 1.87025 10.244 20.2133 1.57349 0.317318 -0.817055 
262 1 26.9815 2.04093 14.2545 20.255 0.341004 1.65851 0.306777 
265 1 26.9815 3.92498 12.1371 20.2457 -0.790072 0.42074 0.976223 
456 1 26.9815 8.08213 10.1719 18.2252 -0.00887747 5.35584 -0.839387 
466 1 26.9815 6.10306 14.1159 16.2877 -2.39702 0.908788 -0.937866 
467 1 26.9815 6.07049 12.0576 18.2658 0.314366 0.086914 0.595566 
266 1 26.9815 6.039 14.2252 20.1632 -0.123142 0.572221 -0.301076 
269 1 26.9815 8.00891 12.2228 20.2505 0.98557 1.80734 1.39513 
469 1 26.9815 8.16269 12.1868 16.0684 -1.38567 0.584974 2.10348 
472 1 26.9815 8.12931 14.1305 18.1995 -0.559496 -0.167181 1.37975 
455 1 26.9815 10.119 10.1293 16.2879 -2.84693 -1.05855 -1.02412 