ITEM: TIMESTEP
0
ITEM: NUMBER OF ATOMS
8192
ITEM: BOX BOUNDS pp pp pp
-3.9698540977530428e-01 5.1622087409774288e+01
-3.9698540977530428e-01 5.1622087409774288e+01
-3.9698540977530428e-01 5.1622087409774288e+01
ITEM: ATOMS id type mass x y z vx vy vz 
7913 1 95.94 2.64108 3.2152 1.74197 2.90096 1.72875 -1.77975 
4098 1 95.94 -0.0918574 0.4658 0.936675 -0.166803 0.959803 3.70312 
4414 1 95.94 51.3076 2.93742 2.12484 4.50605 -1.06924 -1.41931 
4 1 95.94 3.57773 -0.0244078 2.31072 -6.04709 5.23451 9.18538 
37 1 95.94 45.219 19.5654 -0.241386 -5.20306 3.79694 -2.15249 
228 1 95.94 4.95567 4.48301 1.14044 -4.2574 -2.85905 -4.2772 
23 1 95.94 9.8784 1.88567 1.46436 -1.32761 -1.91991 -21.4103 
4089 1 95.94 7.46324 1.36801 2.59246 -5.89347 -2.12163 -1.25406 
326 1 95.94 11.9156 2.34894 3.06846 5.85452 11.5604 0.38851 
3547 1 95.94 15.0457 1.2888 0.697129 -4.52665 -8.91601 -5.84799 
1938 1 95.94 17.942 1.20722 1.03606 8.36551 6.8258 4.47089 
570 1 95.94 17.0028 -0.228512 2.66138 -5.27209 6.16179 4.43984 
4252 1 95.94 19.547 2.79924 3.16217 2.1465 2.41172 -0.0821391 
4124 1 95.94 20.7304 2.41516 0.694891 4.77215 1.86497 1.76406 
217 1 95.94 21.4947 0.261228 2.4847 7.31596 -0.608987 -3.27935 
7919 1 95.94 25.7584 0.31259 0.917886 5.70478 2.43978 2.9309 
4107 1 95.94 24.2915 2.14147 3.00072 1.86498 1.95273 1.50331 
3842 1 95.94 22.9998 1.18817 0.561155 -4.22939 -8.57691 8.01857 
4386 1 95.94 27.3365 2.15997 2.30182 -4.52646 -0.097788 -5.70936 
5896 1 95.94 28.405 -0.336002 1.2914 0.916736 -4.77067 4.24668 
3828 1 95.94 29.7251 2.23411 1.34836 -1.3182 -6.19084 3.16875 
7628 1 95.94 32.1221 2.31565 0.769719 3.39518 -0.6247 0.0204861 
4168 1 95.94 33.7135 0.769542 3.25032 -3.66865 1.70686 -0.63466 
3852 1 95.94 36.1535 1.44629 2.22008 -3.5357 -8.51442 0.808513 
3788 1 95.94 34.9749 50.9403 2.09578 -0.951702 -2.25173 7.89855 
4025 1 95.94 38.2538 1.28503 3.85844 1.43707 1.88888 6.06173 
7926 1 95.94 39.749 2.0964 1.67241 -4.01216 -2.04976 7.4988 
3993 1 95.94 39.8061 -0.346879 1.64822 -4.2383 -3.13905 -0.997445 
5586 1 95.94 0.497644 0.834394 24.9581 2.33575 -1.90667 4.6867 
3833 1 95.94 42.4218 1.47644 1.70426 1.32472 1.32839 4.76284 
3997 1 95.94 44.4506 1.7555 2.93222 -3.50364 -3.80126 5.66058 
2071 1 95.94 43.8302 -0.211606 4.0554 0.26748 -0.505064 -5.99602 
3835 1 95.94 46.6754 2.14632 1.56036 -0.718168 1.09606 -0.635027 
1490 1 95.94 49.2375 7.20468 24.5089 6.37571 -3.41912 -7.25281 
4116 1 95.94 49.1176 0.684189 1.27861 4.34387 -0.541094 -2.51145 
21 1 95.94 48.3126 2.8104 3.25204 4.92097 6.84972 6.89097 
8088 1 95.94 29.9601 29.1719 -0.0360966 6.0283 -4.16219 -6.90828 
1 1 95.94 0.905414 5.41242 0.848482 -5.27813 -0.105197 2.73924 
5918 1 95.94 0.939395 4.59643 3.61627 -1.68534 -5.32221 4.13514 
8065 1 95.94 28.052 27.3089 -0.404357 -8.97407 3.24286 -6.41087 
4106 1 95.94 5.53362 6.30348 2.82139 -11.7678 10.4115 1.00869 
3858 1 95.94 8.15588 4.38178 1.32261 6.42471 0.764281 1.55089 
7955 1 95.94 10.0932 6.71333 1.26192 4.09846 -2.54177 -3.08185 
6084 1 95.94 11.2538 4.3553 0.806564 -1.84686 4.70544 6.86124 
6385 1 95.94 14.2105 3.72284 1.45748 -3.48099 2.84337 -1.30443 
3841 1 95.94 13.4203 6.43971 1.4696 -0.0436198 -14.1148 -3.09279 
8162 1 95.94 11.5706 5.35132 3.78104 -1.55226 1.86489 -4.58202 
2314 1 95.94 15.8834 5.18201 2.91162 5.04374 -2.6887 -7.59084 
46 1 95.94 18.2844 4.27557 1.18427 0.86321 -1.49999 -0.735021 
7960 1 95.94 18.391 6.78673 1.79714 2.26267 3.39307 -0.98239 
7948 1 95.94 42.0594 6.45032 1.38689 1.5467 -2.17082 5.86482 
29 1 95.94 20.6621 5.15509 2.199 2.80725 7.03736 -7.58329 
3974 1 95.94 42.7297 24.1662 1.60663 -0.147249 7.38789 -1.65403 
3846 1 95.94 25.7456 2.61584 0.0638631 5.02461 3.43472 10.3101 
3865 1 95.94 23.0322 3.75768 1.13763 -3.7623 -1.07095 1.21352 
8018 1 95.94 7.16512 17.6228 0.435685 4.41393 1.97341 4.00488 
3848 1 95.94 28.5547 4.30499 0.904943 -8.81326 -4.34367 -7.15326 
4128 1 95.94 26.3945 4.7581 2.3529 10.6086 5.00437 4.92058 
7942 1 95.94 28.7879 6.40428 2.96163 -0.104651 0.581216 -6.35423 
7976 1 95.94 4.42009 9.90428 -0.20805 6.14025 -7.22295 2.83839 
3847 1 95.94 30.1114 6.67028 0.689273 3.18809 1.13344 -3.80992 
13 1 95.94 31.0861 4.36113 2.42324 -8.60916 10.1714 -3.19253 
7946 1 95.94 33.1684 6.47524 1.1423 -8.92887 -1.61537 -1.91714 
3554 1 95.94 34.3956 3.46435 2.03937 4.3595 2.26082 2.26641 
7947 1 95.94 37.8928 6.80057 3.35088 -4.40216 3.99064 -5.01217 
4132 1 95.94 37.3564 3.73573 2.44485 5.72835 -7.85853 0.503596 
3851 1 95.94 35.9253 5.45397 0.490289 -3.58814 -6.31646 -5.1819 
3872 1 95.94 39.5599 8.13713 0.492649 1.65922 -3.87075 -7.6048 
7927 1 95.94 40.1288 5.10779 2.97006 0.909639 3.53621 0.931569 
2054 1 95.94 47.0648 5.0319 2.55975 -2.7705 8.02816 8.00367 
4136 1 95.94 44.0307 4.10673 1.44583 -0.958486 -3.50046 0.907996 
7950 1 95.94 45.1218 6.83848 1.19058 -3.16052 -5.3125 -13.9586 
7921 1 95.94 31.8996 4.67319 -0.32044 0.470493 7.74225 0.946033 
4138 1 95.94 48.0072 6.85417 0.784003 5.52233 1.69089 -8.00023 
1931 1 95.94 49.6152 5.0254 2.94598 -1.51051 -1.99674 5.01817 
7933 1 95.94 1.94969 8.16475 0.529148 0.853849 -1.65474 5.69861 
141 1 95.94 50.9075 37.2116 25.4256 7.2318 1.53192 10.169 
7954 1 95.94 4.89703 7.50913 0.557787 2.50745 -3.92514 -1.64755 
44 1 95.94 4.0736 9.11657 2.60369 2.16921 -1.78968 -1.02511 
1950 1 95.94 2.58449 6.2098 2.6217 -5.89272 -2.20988 -6.40203 
4161 1 95.94 6.99391 8.69451 2.11763 -2.34526 6.58887 -0.376589 
3860 1 95.94 9.55485 9.1126 1.19797 3.69431 11.6196 1.47624 
8039 1 95.94 14.7809 26.841 1.3292 1.99088 5.01934 0.725626 
2229 1 95.94 12.9369 9.10511 0.918771 0.292219 -0.338464 -2.09162 
4142 1 95.94 11.5398 7.75686 3.22434 0.632321 -10.2356 5.98701 
2077 1 95.94 30.8398 33.3867 1.08568 -7.17806 7.05062 -3.73148 
4144 1 95.94 15.9986 8.28378 1.72598 -2.0353 -1.40283 -0.267426 
28 1 95.94 15.3627 10.224 0.483575 -2.24574 -8.18043 -4.8187 
7980 1 95.94 18.1713 9.51211 3.11945 0.957764 -1.0352 -4.96255 
7983 1 95.94 20.6771 8.53984 2.45486 1.69605 1.49609 -1.98793 
4049 1 95.94 12.6377 40.4998 -0.30507 6.80484 -2.65306 0.0636318 
5923 1 95.94 16.8327 11.2926 25.2931 7.26434 2.92499 3.92458 
4425 1 95.94 22.7363 7.04483 3.93016 -1.24384 6.96989 -3.27662 
4147 1 95.94 22.5966 6.78372 1.06457 2.60359 6.33874 -1.71871 
4150 1 95.94 25.1139 7.23681 2.12429 0.987096 -2.9615 1.56583 
4146 1 95.94 23.323 9.3681 2.06361 -8.33151 0.894843 4.29453 
4169 1 95.94 24.5994 10.9419 0.438873 0.521197 13.9074 2.33005 
31 1 95.94 27.3327 6.72528 0.598079 0.772577 -2.42156 2.3835 
7963 1 95.94 26.4389 9.47575 1.67328 -1.31243 -0.719111 3.98512 
3834 1 95.94 47.1852 51.1004 -0.143611 6.96318 2.77917 -2.58953 
1832 1 95.94 29.1093 10.4043 25.1581 -2.48618 2.54847 -7.61442 
3825 1 95.94 31.6875 9.23526 1.14189 2.58033 -9.43586 6.47233 
3849 1 95.94 29.0002 9.17633 2.20567 -5.06803 2.61074 6.28911 
56 1 95.94 34.3451 9.04785 2.60424 -0.638813 8.5756 -10.6313 
1843 1 95.94 2.04223 17.8684 25.0001 -5.13099 -3.1446 7.59113 
8147 1 95.94 37.0217 8.18088 1.15565 6.00661 -1.58254 2.81008 
4196 1 95.94 38.8881 9.86148 2.73315 4.06812 -5.09972 -2.49062 
3830 1 95.94 41.6775 9.87108 1.6137 -3.48283 3.38867 -3.90701 
81 1 95.94 42.5491 10.9785 3.64302 -0.838462 0.563094 -10.3222 
4329 1 95.94 44.3081 9.18569 1.74393 2.11912 1.92516 2.41529 
3853 1 95.94 40.9693 8.27708 3.78424 7.84297 -3.02977 -5.2849 
62 1 95.94 46.7969 8.73672 2.45878 4.46982 2.06292 -2.8731 
4382 1 95.94 45.8106 10.8519 0.625675 6.38935 -3.74057 -3.46558 
4156 1 95.94 45.78 10.5568 3.82991 -4.65878 9.31567 -3.19066 
7615 1 95.94 -0.242296 6.72522 3.08883 -1.96144 -1.25302 -3.33057 
3581 1 95.94 50.7096 6.67488 0.614991 1.06647 7.18652 -4.77171 
3561 1 95.94 49.8871 9.0245 2.13977 -3.41138 4.00964 3.00137 
4438 1 95.94 0.229308 9.85645 2.11303 4.19307 4.90453 6.4986 
3583 1 95.94 2.86096 11.6481 1.58698 -1.77497 4.06768 -3.08208 
65 1 95.94 0.521912 13.0651 1.73535 7.15992 4.84798 0.110933 
7974 1 95.94 0.680861 11.7047 -0.290213 4.79981 11.1553 -9.7228 
7973 1 95.94 5.62595 11.5658 1.62184 -7.64742 5.80325 -3.10766 
7995 1 95.94 4.95336 13.211 3.14132 -1.0365 -0.591241 -2.06789 
344 1 95.94 7.56609 13.0664 4.55193 -3.60961 -0.0565398 0.160181 
3586 1 95.94 8.64419 11.3179 2.6479 -2.5204 -0.553745 0.0895236 
3903 1 95.94 10.6121 13.4032 2.58695 0.908073 4.62499 -6.53228 
7957 1 95.94 11.4819 10.4334 3.09787 -4.20104 0.382678 2.50035 
68 1 95.94 13.6232 12.1034 1.81037 2.11415 0.458891 -0.921411 
7978 1 95.94 12.6709 13.692 -0.317594 1.20155 -5.24254 1.48362 
3589 1 95.94 17.781 11.672 1.16548 1.84527 -2.21673 2.20501 
3882 1 95.94 16.3413 13.6723 1.72793 -9.77434 -5.2295 2.02226 
224 1 95.94 17.7655 40.4718 -0.373714 -0.442549 3.87452 -2.25377 
8143 1 95.94 32.4956 50.5696 0.770004 11.0041 -1.43747 8.35223 
4310 1 95.94 20.2191 11.4293 2.63361 3.29646 -5.23252 2.52663 
3885 1 95.94 21.4499 13.8168 2.49278 0.579648 9.59217 13.1087 
73 1 95.94 24.1134 13.7328 1.57147 -2.50632 -1.49946 -5.06463 
7982 1 95.94 22.3138 11.9749 0.823002 -3.33597 10.3675 -2.54135 
375 1 95.94 26.5728 12.7969 0.553901 -8.13985 6.27757 5.97929 
4170 1 95.94 28.9443 13.9336 1.97235 -7.40552 7.30334 -2.72453 
75 1 95.94 28.8102 11.4269 0.591859 -0.144846 -4.70279 9.39155 
377 1 95.94 30.4854 11.3459 2.68501 9.00225 -3.29047 4.18547 
76 1 95.94 31.1142 14.0182 1.17454 1.49355 1.15604 -10.927 
4194 1 95.94 31.3393 13.5755 4.36201 3.04028 -0.155102 5.74291 
4451 1 95.94 36.1287 10.7138 1.78576 -3.87411 -7.59719 11.3007 
7930 1 95.94 45.8995 48.2881 0.312963 -5.35136 6.58461 0.306031 
4473 1 95.94 33.1426 11.9469 2.56802 -4.0186 -4.70553 2.46128 
78 1 95.94 35.9125 13.2306 2.76831 -7.00465 1.65864 -2.06614 
6071 1 95.94 19.4874 43.3378 25.5521 -1.9938 -1.83122 -3.58353 
4175 1 95.94 38.369 12.6987 1.8331 2.94583 -0.915282 -2.23935 
3893 1 95.94 40.0914 14.6142 1.34722 -1.92452 -2.30082 -5.47383 
3981 1 95.94 3.84964 30.2078 0.00142166 4.96746 0.928171 -9.66658 
7991 1 95.94 44.2602 12.8935 2.36464 -0.247314 -0.956157 -5.88222 
6125 1 95.94 46.9822 48.4353 24.1947 -0.276302 -1.75793 -4.48445 
7967 1 95.94 40.9764 12.304 1.41465 -0.563991 1.33061 -1.08367 
8008 1 95.94 42.1267 13.9199 3.7933 -3.85722 11.6345 5.70199 
3999 1 95.94 50.7964 31.9874 0.0973267 -4.45098 4.96076 -3.85922 
7970 1 95.94 46.5628 13.1172 2.04933 -4.86567 10.4003 13.6933 
4178 1 95.94 48.2332 11.2458 2.11804 8.84501 2.98583 -8.9991 
4200 1 95.94 50.9236 11.6618 3.64683 6.81004 -1.22903 4.34476 
3896 1 95.94 49.2772 13.6383 1.55424 -4.53214 1.33998 2.22497 
84 1 95.94 2.51205 14.9139 2.12416 -3.49794 -1.77779 -2.70773 
3602 1 95.94 51.3345 14.7706 0.15711 0.754181 0.960198 4.29944 
125 1 95.94 -0.305528 17.5928 2.34624 -4.29536 5.37906 -3.33236 
4162 1 95.94 4.6884 13.6391 0.563611 1.20053 2.83933 3.32039 
4180 1 95.94 5.38066 16.5492 1.83477 -6.64331 -1.21795 -7.47408 
3822 1 95.94 24.9773 5.50379 -0.324385 6.68748 0.424547 -0.448074 
3880 1 95.94 7.55858 13.4272 2.03983 -5.65688 -4.66201 -8.16695 
3607 1 95.94 8.81758 15.6882 2.02131 -5.26381 2.59684 7.89266 
4323 1 95.94 13.7542 14.7282 2.26052 0.0905387 0.191437 -4.37288 
2087 1 95.94 14.5599 17.2339 3.41163 -1.87214 6.24092 -1.95111 
7706 1 95.94 11.4734 15.6609 0.642942 -4.26938 1.20227 1.32653 
7414 1 95.94 18.1349 17.246 2.33802 -4.82304 0.713717 -0.614104 
91 1 95.94 15.887 15.9378 1.30023 -2.17275 1.54612 4.45939 
8000 1 95.94 20.3339 16.3708 2.4268 4.02228 4.07288 6.96688 
4207 1 95.94 18.3744 29.6405 0.0485241 3.18766 -0.999686 -2.93336 
4027 1 95.94 14.3696 36.534 -0.0539413 1.91584 -4.04229 -5.39764 
6146 1 95.94 23.5358 16.0946 2.41258 -5.7565 1.88656 -3.26729 
8002 1 95.94 22.8619 18.667 1.69017 4.40984 1.99273 -3.1082 
96 1 95.94 25.4154 18.0231 3.468 -1.06629 3.66381 -4.33431 
4171 1 95.94 27.7664 15.3479 -0.15568 0.175003 -1.31089 -1.92138 
4191 1 95.94 26.0031 15.3261 3.0679 -4.20246 -2.48657 -0.553718 
8025 1 95.94 25.9676 17.2388 0.928636 -6.09943 -2.28284 3.77925 
2038 1 95.94 28.1145 16.7918 2.15194 8.48484 -0.665418 3.98951 
4092 1 95.94 30.1747 16.3484 0.492097 5.26758 -5.14953 4.92546 
3943 1 95.94 31.0216 16.2236 3.14977 4.95941 0.0460249 1.86234 
7986 1 95.94 32.8343 16.2179 0.642883 -0.869868 6.07108 3.39407 
99 1 95.94 35.7451 18.4548 2.33749 -5.73154 7.16798 -3.14559 
8047 1 95.94 35.2393 15.9543 1.67077 5.89266 3.39976 4.14311 
4173 1 95.94 33.1704 14.8338 2.79956 2.39464 -3.33341 4.89981 
3913 1 95.94 37.8521 15.7916 2.60034 -4.90118 -3.20136 5.79085 
8007 1 95.94 37.4801 17.3976 0.582549 6.0799 0.272834 -7.86048 
103 1 95.94 48.2862 50.7272 23.4684 4.97967 -5.38935 2.02748 
3912 1 95.94 42.3966 16.1552 1.37606 6.06463 -9.98188 -6.6519 
4215 1 95.94 40.4617 16.6325 3.25212 -2.96112 -4.09244 -2.41079 
8012 1 95.94 44.9125 15.3143 3.46845 -11.0378 1.08701 -2.31213 
7989 1 95.94 44.9494 17.5664 1.63138 -1.65456 -7.48642 5.1263 
3894 1 95.94 45.0331 15.1575 0.263923 -3.03008 6.65047 -1.3884 
5880 1 95.94 14.8139 5.23955 24.3553 -0.769021 -5.97234 2.98487 
3623 1 95.94 47.3439 16.0469 1.83405 9.699 -2.78041 -0.865142 
219 1 95.94 9.32796 36.1732 0.498675 -4.45226 3.035 6.24529 
8034 1 95.94 1.23869 19.7962 1.48236 0.898038 1.01375 4.0011 
3921 1 95.94 3.57695 20.1875 2.61108 3.37942 -2.84258 2.03959 
4154 1 95.94 1.53683 21.6264 3.42183 11.1745 6.1305 4.73167 
6486 1 95.94 1.62957 10.1665 25.4979 1.74678 5.17457 -0.949021 
1731 1 95.94 22.7842 0.797509 24.682 -0.886315 5.31977 -4.85112 
4204 1 95.94 5.43195 19.1849 0.895221 2.65655 1.05944 0.336868 
6414 1 95.94 7.94183 18.2274 2.83349 -0.111439 -3.55585 -3.16145 
2055 1 95.94 10.0887 20.4191 2.65179 -6.08011 4.8859 1.90891 
4312 1 95.94 46.1245 4.67143 -0.340145 8.58232 1.33457 2.62608 
3902 1 95.94 9.94807 18.2984 0.980691 4.13399 -1.60319 -1.54587 
8020 1 95.94 13.449 17.691 0.75942 7.7126 1.93147 3.66711 
113 1 95.94 12.3898 19.2036 2.73044 -1.90658 -4.16574 3.54438 
3630 1 95.94 13.9222 20.3562 0.616506 -2.30853 0.0098944 -0.624067 
6155 1 95.94 15.0281 20.3522 3.10953 -1.34449 5.42526 -0.49526 
3926 1 95.94 17.6698 20.3773 2.24731 -4.06607 -8.09229 2.84794 
3935 1 95.94 16.881 18.2839 4.46033 -0.0961742 -0.485035 -0.60671 
8023 1 95.94 15.7713 18.7659 1.21259 0.68239 3.40282 7.82372 
3947 1 95.94 20.5076 21.0595 0.640288 3.95836 -0.561103 -2.52747 
3929 1 95.94 20.1461 19.4721 3.25802 2.38647 9.6063 1.63601 
4337 1 95.94 14.3466 44.8999 -0.139977 -5.23906 -12.5874 -8.23448 
2053 1 95.94 23.2516 21.5781 1.22723 4.89895 -1.34412 -5.34721 
392 1 95.94 25.5399 19.9325 1.2348 -7.04889 4.32899 -6.17494 
7524 1 95.94 25.3896 33.9756 0.730337 -2.29896 0.212608 -1.06245 
3908 1 95.94 27.5415 21.2087 0.212826 3.59576 -1.29504 -1.04143 
77 1 95.94 33.5661 13.4582 -0.146773 -5.0309 3.72998 0.125239 
117 1 95.94 30.3155 18.8094 2.02085 -8.71643 -4.56564 6.31997 
3951 1 95.94 31.9787 20.6939 2.58012 -5.47032 2.07895 8.11101 
3718 1 95.94 22.7118 33.831 -0.0543401 -1.94384 5.1552 -6.81096 
4065 1 95.94 8.01639 49.113 0.0606876 0.505816 -3.96913 -8.82221 
4172 1 95.94 31.8686 18.5862 0.192995 -0.693869 8.18742 4.42847 
4217 1 95.94 36.7674 20.944 3.22271 0.536348 -1.04692 -0.911946 
3638 1 95.94 34.758 20.5802 1.28432 1.32321 1.78586 -2.46938 
3934 1 95.94 38.2481 18.4766 2.77578 -5.14358 3.09491 8.5748 
122 1 95.94 39.2502 21.3739 3.46748 2.0748 -0.951758 -6.69934 
4095 1 95.94 39.8778 17.0694 0.261071 -3.58476 3.80115 -6.1651 
1824 1 95.94 42.6366 19.2136 0.470315 -2.34207 1.50475 -1.46317 
8052 1 95.94 42.1699 21.5306 1.89948 -0.63941 5.98225 -2.50231 
7631 1 95.94 37.5863 2.52628 -0.133089 0.351009 -6.69429 -0.161707 
4218 1 95.94 45.0446 20.3043 2.62081 0.862783 -0.288553 0.494593 
282 1 95.94 5.4434 50.7497 0.148169 -0.349072 -0.640886 -10.2921 
3957 1 95.94 47.6777 19.0881 1.43156 -2.76273 0.505441 9.32668 
7994 1 95.94 50.9455 20.2964 3.47747 2.73157 -2.63224 3.68393 
8054 1 95.94 47.0134 21.891 0.609563 5.38798 -10.6531 -3.25957 
8055 1 95.94 51.4762 21.4527 1.05725 3.18214 -6.36121 -12.4812 
1968 1 95.94 1.49871 42.5929 24.6624 2.52855 -0.0840762 -2.6212 
8053 1 95.94 49.4194 21.5995 2.15315 0.242802 -5.27275 5.33966 
8036 1 95.94 0.13366 26.0408 4.26144 5.91086 7.78032 -5.38442 
8017 1 95.94 2.23823 22.7038 0.994645 -1.88231 -2.69854 -0.948068 
4222 1 95.94 1.88599 24.5121 2.85852 0.16841 1.21359 2.32624 
128 1 95.94 4.47155 23.1703 2.2109 0.86971 2.25223 3.97751 
1851 1 95.94 19.1799 18.3676 25.3678 0.388529 -3.21905 0.157532 
5584 1 95.94 51.2979 50.9008 23.4539 -0.570602 6.83584 6.14063 
3942 1 95.94 7.6651 20.5584 1.74189 0.356546 -3.22915 1.52488 
4362 1 95.94 9.78804 22.7844 3.25896 -2.62774 -9.18785 -2.6122 
131 1 95.94 7.21469 24.7808 1.78717 4.65611 2.04367 9.3452 
7591 1 95.94 41.7553 46.2914 -0.0744707 -4.0524 10.075 -0.621534 
7999 1 95.94 11.9216 22.6724 1.02531 6.80647 -3.39049 3.0314 
1760 1 95.94 49.9421 48.9548 24.3615 -1.88315 5.69737 -4.16605 
111 1 95.94 10.2959 24.8659 1.80452 2.52441 -8.11984 -8.62279 
263 1 95.94 13.1162 24.7551 2.87621 -3.29042 6.33871 6.57092 
8041 1 95.94 14.849 22.5229 4.33395 6.2171 -1.15647 1.11205 
8022 1 95.94 15.4064 22.4479 1.23152 0.671171 8.6207 2.11205 
8043 1 95.94 15.7878 24.7663 2.4616 1.45076 6.99625 -7.6246 
8026 1 95.94 20.01 22.1432 3.63385 4.06637 -4.05247 -4.44496 
8042 1 95.94 18.3915 22.9396 1.14426 2.62741 -1.46874 -12.5908 
2319 1 95.94 24.3267 23.9076 0.660221 -3.06036 -1.37172 -6.98586 
4274 1 95.94 36.0819 32.8115 0.00590012 4.77853 -2.15337 1.98217 
8044 1 95.94 21.3308 23.5969 1.60229 -0.201134 -3.74765 3.98748 
3930 1 95.94 25.8262 22.3453 2.60321 -0.511099 -1.40947 0.975785 
8046 1 95.94 28.256 24.8896 2.02998 1.18703 -2.09802 0.770274 
3949 1 95.94 28.7023 21.9276 2.43086 -2.03508 0.108548 -5.23919 
1947 1 95.94 49.1789 31.9973 23.914 -3.20702 -0.888558 -2.37989 
3950 1 95.94 29.7326 25.0559 4.2129 1.96209 -0.40001 -6.64612 
3658 1 95.94 31.4713 25.9265 1.66635 -7.20173 -7.90582 -4.01519 
3933 1 95.94 30.7909 22.8775 1.46049 6.20966 9.39365 -3.69791 
1875 1 95.94 35.3479 23.2439 3.43119 2.98179 0.0634332 -3.94915 
3972 1 95.94 33.605 23.1856 1.66325 2.09129 0.552262 -8.66294 
4257 1 95.94 36.0437 25.4807 1.88984 5.64937 1.83215 6.23983 
6198 1 95.94 36.6772 22.5358 1.04106 -6.3085 0.423308 6.68135 
4241 1 95.94 38.0298 23.7293 2.9486 4.79102 -7.69059 7.62386 
4261 1 95.94 39.0988 26.0333 2.4402 3.09933 -4.42201 -4.81476 
8049 1 95.94 39.8084 22.6869 1.17363 -0.0665143 -4.14632 2.16843 
4264 1 95.94 40.5769 23.954 4.01685 4.82744 -8.03229 9.70796 
124 1 95.94 44.4259 21.9366 0.204175 3.29734 2.20082 1.79867 
3996 1 95.94 44.1583 25.9459 2.73777 5.76712 0.302835 -7.66975 
8032 1 95.94 36.9912 19.7475 0.585301 6.67488 7.00619 0.0803638 
74 1 95.94 22.2169 14.6311 0.235005 -4.33552 9.81418 0.613147 
3978 1 95.94 44.5946 22.7571 2.79007 2.36301 2.44968 -2.18656 
4265 1 95.94 49.2633 24.3089 1.49702 -0.229773 1.1956 12.7173 
129 1 95.94 1.65765 27.4421 2.65674 1.10102 6.06998 1.23228 
4271 1 95.94 2.70348 30.249 2.18623 1.40155 4.91527 3.27154 
8060 1 95.94 6.71409 27.4106 3.41543 -1.80537 -3.12261 0.014323 
4270 1 95.94 5.13503 29.5306 1.82125 1.1518 4.81164 -0.106583 
4226 1 95.94 4.37151 26.1565 2.20252 -4.67209 4.18506 -0.550172 
7769 1 95.94 6.69709 27.19 0.469848 -8.8059 -3.13481 -7.84527 
178 1 95.94 9.08962 27.0017 1.32726 0.365405 -6.43577 10.7421 
1488 1 95.94 45.3439 51.3477 23.448 -15.4668 1.02221 2.41655 
5907 1 95.94 22.0484 9.99504 25.0631 10.5412 -2.77793 0.0972471 
7745 1 95.94 11.7601 26.8456 2.43721 7.94422 4.00389 -6.17722 
8062 1 95.94 13.4122 29.0614 1.12924 0.826028 2.9387 1.81953 
6126 1 95.94 30.7575 -0.0714725 25.5935 -0.502699 3.27241 4.23897 
158 1 95.94 18.7509 24.6931 2.98867 -1.77303 -2.01094 -0.309455 
448 1 95.94 17.2985 27.5621 1.66205 7.10417 -1.0172 -6.92277 
3946 1 95.94 13.9316 27.4323 3.667 -9.30017 -6.64801 -4.09201 
6006 1 95.94 13.3457 31.4337 24.9083 1.19776 -2.58479 -0.036606 
4233 1 95.94 20.1332 26.4238 1.41699 3.99204 -1.16959 0.0566718 
8045 1 95.94 22.8664 25.7496 2.51906 3.94104 1.76215 5.90377 
3969 1 95.94 25.5127 29.1306 0.405548 -2.56684 -0.12857 -0.730363 
8064 1 95.94 22.5798 27.932 0.584905 -3.65426 -2.87868 -8.87509 
159 1 95.94 26.6258 27.4026 2.30227 9.23457 -1.42739 0.425822 
8087 1 95.94 29.2599 27.546 2.29128 -6.51791 4.15752 6.62946 
6078 1 95.94 41.1406 37.9427 25.5619 -0.508331 -1.61198 -2.57147 
4259 1 95.94 31.7376 26.8446 4.29286 -5.80456 -8.3493 -5.29337 
8115 1 95.94 31.251 28.8906 2.52577 5.38298 -3.56954 -1.55537 
7766 1 95.94 2.35391 25.7378 0.0886094 -5.54165 -8.54427 7.36798 
3620 1 95.94 37.9393 14.8344 0.301385 -4.75307 -1.24953 -4.67595 
6366 1 95.94 34.0754 27.9487 2.38023 -5.48367 -0.391205 -0.496895 
7975 1 95.94 33.8091 26.0712 0.590601 -4.14725 6.63765 1.22118 
3936 1 95.94 39.9959 19.9347 0.453807 1.9446 -6.64659 2.34796 
167 1 95.94 41.6015 26.5263 3.60316 16.0083 -8.39454 2.25266 
2017 1 95.94 37.22 28.0239 1.35283 -2.13375 -5.22028 0.834111 
190 1 95.94 42.2601 27.638 0.952092 1.31008 -3.24476 6.69635 
8075 1 95.94 40.5043 25.3043 -0.16017 2.30107 3.52224 -0.558737 
4100 1 95.94 46.7459 25.5341 2.91223 0.354688 -2.63143 -0.880638 
170 1 95.94 45.2955 27.6327 0.84019 2.86447 -9.65296 3.85915 
169 1 95.94 47.1522 28.5727 1.92398 7.93349 -6.89006 4.36756 
4338 1 95.94 15.8057 43.4544 1.10399 0.023039 4.22687 -2.00119 
3869 1 95.94 34.6764 8.02917 0.0986553 5.21418 11.1294 -3.16886 
7981 1 95.94 49.4917 27.1296 2.48831 -3.54726 2.1948 8.90759 
4120 1 95.94 51.3401 28.5702 1.39519 -4.13336 1.42457 -7.22426 
3790 1 95.94 42.8255 48.8882 0.359084 -8.68382 0.662757 -12.118 
1906 1 95.94 1.36415 26.8424 25.0783 -4.71158 1.77658 -2.84276 
4269 1 95.94 0.0679089 30.1849 3.18177 3.59422 -5.04211 -0.602062 
7786 1 95.94 1.21651 32.3717 1.16145 4.49567 3.40339 6.08006 
176 1 95.94 4.31504 32.5978 1.57419 -2.59842 -3.20816 -2.11156 
1798 1 95.94 43.3107 5.76323 25.3058 4.24408 -1.0311 -2.62471 
8059 1 95.94 10.4621 29.6427 1.3244 -7.18584 -3.69051 0.325413 
1854 1 95.94 9.22976 32.0406 1.20942 -8.61843 5.83588 1.75023 
4562 1 95.94 7.83653 29.6341 1.95596 -5.42144 -0.29662 -8.00817 
4272 1 95.94 6.65414 32.0492 2.7639 -1.25887 -3.0481 3.81794 
180 1 95.94 12.4647 31.7004 1.66935 -2.85669 6.44579 -1.16836 
3986 1 95.94 17.9447 31.2392 2.03162 -7.04332 -9.13754 0.131562 
4093 1 95.94 15.0094 32.0564 1.8461 -2.95053 -0.820877 -4.93313 
4564 1 95.94 15.695 29.3936 1.48474 -7.53845 9.552 2.00751 
8185 1 95.94 20.323 29.4301 1.87632 2.19733 7.29659 -3.18923 
7792 1 95.94 20.6991 32.1331 2.14903 -0.539655 -6.49448 5.53759 
4254 1 95.94 24.3081 28.5134 2.3607 5.87522 5.68515 -0.203005 
3989 1 95.94 25.5639 31.2462 1.8681 1.74256 -3.38544 0.794902 
8085 1 95.94 22.9258 30.765 0.796787 -7.67839 0.393185 -3.72479 
4279 1 95.94 22.5018 30.2639 3.56564 6.95653 -6.58581 0.260917 
3991 1 95.94 28.2932 29.9999 1.71034 -0.553109 -7.8386 -2.04932 
204 1 95.94 25.1331 31.6603 4.29414 1.91725 4.94817 6.86799 
186 1 95.94 27.7986 32.8003 1.01141 -10.6424 -6.52727 -5.51422 
185 1 95.94 30.0775 31.0315 2.78924 -7.75318 5.77745 0.628164 
4283 1 95.94 33.6792 30.3197 3.14997 4.13987 1.79516 5.67433 
4013 1 95.94 31.9762 31.1043 0.440451 4.55902 2.28197 -4.55856 
3549 1 95.94 16.3966 3.25476 -0.239813 -1.47177 4.49449 -6.62636 
188 1 95.94 34.8972 29.9809 0.649197 -7.35393 -0.306022 4.444 
187 1 95.94 35.5315 32.2946 2.95781 3.71307 -3.3098 -3.82075 
8112 1 95.94 39.4382 28.6785 0.600808 -0.161834 -2.00415 0.0835828 
4285 1 95.94 37.7213 30.6996 1.68653 0.59404 -0.561531 0.114435 
4590 1 95.94 37.7491 33.352 1.64128 3.33442 4.16988 -2.7461 
4304 1 95.94 40.9797 30.0817 2.40301 2.57824 3.74084 3.09632 
3931 1 95.94 40.1789 32.4029 2.02351 0.235791 2.6344 6.71499 
168 1 95.94 43.423 28.791 3.20509 -3.09512 0.509063 -1.08916 
8093 1 95.94 43.0441 32.4529 1.57999 -2.38403 0.735222 -1.58557 
4307 1 95.94 44.6977 33.3354 3.09068 2.25359 5.91431 1.31314 
199 1 95.94 44.3187 30.2001 1.17941 -0.143017 -1.80362 1.4403 
2221 1 95.94 45.5079 32.7726 0.189092 0.319339 -0.309647 -3.2079 
8100 1 95.94 6.59115 31.5902 0.394655 1.67975 -2.59883 7.82573 
7951 1 95.94 48.89 3.8437 0.637917 -1.26941 1.33679 1.79227 
3924 1 95.94 49.4766 30.5335 2.15534 6.98857 6.04987 3.65718 
4558 1 95.94 49.6859 33.1721 2.52433 -6.53978 -4.01624 6.22184 
4289 1 95.94 47.1423 31.7442 2.19699 -7.18662 1.5021 0.448502 
194 1 95.94 -0.0942463 34.5081 1.26797 6.11827 -10.5759 1.40132 
174 1 95.94 2.72444 34.9229 0.359116 0.138351 3.4476 -5.30932 
4578 1 95.94 1.61188 36.7838 2.01651 5.55732 -9.03831 -0.66587 
6258 1 95.94 1.96698 14.0458 -0.177627 -1.48871 3.50598 -3.25683 
2292 1 95.94 5.46237 34.6622 0.435729 -6.1316 3.36689 6.63274 
4290 1 95.94 4.5246 36.8461 1.80457 -7.51496 3.60336 1.91727 
4032 1 95.94 33.3563 38.2395 -0.327612 -3.7984 -0.797673 5.05589 
4293 1 95.94 6.90397 36.3836 2.49639 4.07225 4.64831 -8.47221 
198 1 95.94 8.18331 34.0996 1.60898 3.32592 0.15767 -3.87616 
505 1 95.94 9.90928 36.0157 3.45593 -10.2828 7.77087 7.04096 
4295 1 95.94 11.0615 33.858 3.09037 -1.89214 -2.0918 3.5365 
4582 1 95.94 14.3677 34.2998 2.93254 -0.0745313 0.149762 2.95641 
2 1 95.94 13.7295 33.3714 0.0213627 -3.31907 2.54997 -0.635687 
4294 1 95.94 12.3135 35.6522 1.21934 4.4974 -8.35791 4.64019 
8122 1 95.94 16.7267 33.999 1.20627 -3.08926 -3.69471 -1.24918 
4298 1 95.94 17.9923 36.1309 2.38644 0.590996 2.05543 -7.18095 
4318 1 95.94 15.4878 36.3082 2.31826 -6.40198 4.83652 -2.80574 
202 1 95.94 19.5695 34.1186 0.957328 -3.75199 1.63607 -8.15599 
4281 1 95.94 20.9739 36.1571 2.1964 0.627429 1.9144 -3.60936 
183 1 95.94 21.7265 34.1149 3.83161 9.33341 -2.53402 -5.08195 
4008 1 95.94 19.114 38.2031 0.909125 2.88888 -10.1671 11.3825 
1847 1 95.94 23.621 32.7653 2.60828 6.97557 -1.13014 1.64703 
2223 1 95.94 24.0347 35.5881 2.91257 3.44133 -2.87851 -10.9071 
7817 1 95.94 24.057 36.3067 -0.159112 -5.8337 8.46352 -10.2718 
8107 1 95.94 26.593 36.4479 1.38108 1.63254 -1.32159 1.3232 
8086 1 95.94 26.4073 33.9695 3.19035 -5.03313 1.39713 -3.07016 
4011 1 95.94 28.9935 36.9648 3.36147 -0.506187 -5.22769 8.00384 
11 1 95.94 11.2066 37.9942 -0.384452 -10.2978 -2.91896 1.84989 
8067 1 95.94 32.2674 32.8585 3.15049 -4.3412 -2.84048 -4.62493 
4586 1 95.94 29.0927 33.9526 3.14334 -0.259646 -1.52092 -4.86552 
8128 1 95.94 31.5164 37.7646 1.56953 -5.44069 -6.17673 1.05057 
207 1 95.94 31.7084 35.8084 3.72651 1.68881 -0.486728 -0.719556 
4302 1 95.94 32.9379 34.8779 1.84391 7.45442 -3.97104 -4.14013 
209 1 95.94 35.7347 34.8717 1.77233 4.36464 -1.29344 -6.45037 
16 1 95.94 39.6658 34.756 0.25227 6.62224 6.50317 1.18487 
8111 1 95.94 37.716 36.4094 1.37987 1.71957 -8.78494 -6.01146 
8073 1 95.94 39.6502 35.2291 2.9449 9.79216 5.0278 3.54225 
4017 1 95.94 43.9322 34.7738 0.523524 -4.82783 -0.921175 7.27519 
211 1 95.94 42.1043 34.4921 3.26281 2.33386 -2.364 0.249984 
4347 1 95.94 41.2482 36.5778 1.07151 -0.409295 2.46293 1.46971 
4039 1 95.94 46.6416 37.2208 0.856029 5.93706 -1.3636 -6.99933 
234 1 95.94 46.3114 35.4727 4.46767 -1.99048 -1.7288 8.25041 
4020 1 95.94 46.5066 34.8277 1.89977 3.91087 5.96362 1.22473 
8096 1 95.94 50.3936 37.7033 3.33508 0.0362087 -8.50392 7.78098 
1955 1 95.94 0.00929744 39.6914 3.09632 -3.62833 1.85163 -10.4588 
5832 1 95.94 33.0218 47.4122 25.256 -4.53813 -3.20909 -4.41468 
4332 1 95.94 0.341871 39.7946 0.365706 0.208476 10.444 8.74265 
1866 1 95.94 4.88332 38.8151 -0.0663207 -3.23504 4.89691 -8.1273 
4314 1 95.94 2.87142 39.4078 2.36519 -2.5594 -3.04415 3.09964 
196 1 95.94 6.34744 39.1258 3.13121 -4.60554 -6.33893 0.0166654 
4023 1 95.94 8.8674 38.4076 1.5698 0.945383 -7.6183 -7.56461 
3675 1 95.94 17.4232 25.5357 0.264359 -2.89767 8.221 -0.917141 
8101 1 95.94 13.49 38.688 1.77224 -2.96781 -12.412 -1.34453 
242 1 95.94 17.2007 40.8903 2.45963 5.35698 -0.568463 2.63723 
222 1 95.94 16.3819 38.502 1.29198 -0.458498 -3.80522 -2.85569 
1905 1 95.94 49.6263 25.0939 25.2813 3.67608 -2.06389 -0.381084 
2103 1 95.94 20.5516 38.7285 3.31803 -7.82768 3.27637 -3.43781 
5659 1 95.94 24.7215 16.4013 25.2412 -9.40247 -2.53792 0.028342 
8148 1 95.94 24.8285 38.2107 1.45303 -3.68967 -1.15492 -9.72295 
4322 1 95.94 22.1147 37.747 0.756444 6.03823 4.5043 3.44783 
4050 1 95.94 22.2016 40.6576 1.04668 -0.674182 -5.24018 -0.175944 
7929 1 95.94 33.8476 32.7929 0.843437 3.26337 8.48823 -0.981223 
164 1 95.94 26.4304 40.637 0.81868 7.49724 -2.55894 4.97185 
3944 1 95.94 11.1046 27.8598 -0.200853 -1.78245 4.16957 -7.36936 
1764 1 95.94 5.22359 -0.18112 25.4053 1.55844 -2.00845 -0.708059 
1763 1 95.94 27.1322 38.8896 3.12146 7.59156 2.46654 -3.33356 
8127 1 95.94 28.6953 40.9255 2.57529 4.48358 -9.66656 -7.00266 
229 1 95.94 30.2342 38.8243 3.51967 -7.22596 -6.16862 -4.51493 
8129 1 95.94 30.7274 40.683 0.986378 0.855959 5.01527 -14.0378 
5877 1 95.94 35.4295 39.9933 0.880002 -6.10766 -0.0567378 -3.58922 
2118 1 95.94 33.3438 40.0484 2.39957 2.90265 -1.55307 0.75355 
4091 1 95.94 34.5583 37.4098 2.00135 2.90739 -0.302498 -3.19797 
8114 1 95.94 43.8344 37.1342 -0.219065 -2.52616 1.51805 -7.04413 
4328 1 95.94 39.5213 38.6929 1.02335 -5.20073 -6.08645 -6.24656 
251 1 95.94 37.2124 38.7927 2.12672 5.24347 1.62076 -4.40464 
4349 1 95.94 42.1756 39.3827 1.63582 -1.43519 2.06084 -18.4184 
256 1 95.94 44.8337 36.4428 2.68937 9.1648 6.94697 10.2269 
8136 1 95.94 47.4885 38.0149 3.12842 10.7648 -4.6219 3.11034 
258 1 95.94 48.1545 41.2511 2.56882 9.59397 4.71873 -1.04712 
7842 1 95.94 47.0106 39.9709 -0.0990688 -0.210437 3.25682 -3.97231 
3766 1 95.94 44.5165 39.5133 -0.249776 1.07234 -1.7494 1.70149 
4000 1 95.94 51.5252 37.3214 0.54104 3.11066 -0.735275 -6.63127 
8135 1 95.94 49.4047 39.1287 1.18317 -0.266462 -5.49712 -6.72311 
236 1 95.94 48.9762 36.2265 0.924265 10.3728 5.00851 0.868288 
523 1 95.94 1.20464 41.7457 2.0791 5.81834 -3.00851 5.71017 
4333 1 95.94 -0.0253715 44.0846 3.36344 -4.1457 0.351577 3.64778 
4619 1 95.94 2.70961 44.3687 2.75066 7.2331 -2.41352 4.37588 
3927 1 95.94 0.904762 43.5824 -0.0580017 3.58285 -1.37282 -2.02361 
1756 1 95.94 34.5756 49.6969 24.4997 -7.91699 -1.2847 -3.72984 
6052 1 95.94 5.33145 41.267 1.27082 0.730366 2.28526 7.62268 
238 1 95.94 3.55708 43.4068 0.15968 3.40102 1.33928 -3.25391 
239 1 95.94 5.7672 43.9915 1.50096 -4.11254 -2.03006 -6.31627 
4046 1 95.94 8.31336 41.0792 1.7387 1.42816 1.04069 -0.458847 