ITEM: TIMESTEP
1000000
ITEM: NUMBER OF ATOMS
6912
ITEM: BOX BOUNDS pp pp pp
-4.7014956151691933e-03 4.9084701495621644e+01
-4.7014956151691933e-03 4.9084701495621644e+01
-4.7014956151691933e-03 4.9084701495621644e+01
ITEM: ATOMS id type mass x y z vx vy vz 
27 1 95.94 1.70781 3.83666 2.18351 0.511991 1.86186 4.27606 
8 1 95.94 4.04107 2.04117 1.81478 4.72889 2.58873 1.14256 
74 1 95.94 2.27587 1.90879 4.00668 1.85986 5.49784 5.48595 
101 1 95.94 4.00997 3.97955 4.05912 -3.4752 -2.90848 12.2534 
3 1 95.94 1.8895 0.157883 2.08361 0.089938 0.991083 -6.27836 
2 1 95.94 1.81032 2.03655 0.324024 0.862843 0.0574903 4.80181 
12 1 95.94 8.04469 1.95984 1.93332 2.09268 -12.7715 0.927175 
31 1 95.94 6.41432 3.77013 2.56703 -3.95517 3.91856 -2.33445 
78 1 95.94 6.27524 1.62185 4.05375 -5.17699 -11.8391 -11.1108 
6 1 95.94 6.09154 1.89213 0.636327 -3.61844 -4.7675 5.01126 
29 1 95.94 4.13221 3.90512 0.0857126 9.22888 -0.0690335 3.46766 
5 1 95.94 4.17008 0.225363 0.029061 3.1701 -2.82294 4.27607 
35 1 95.94 9.90326 3.68587 1.90767 3.35262 -2.65404 -3.81181 
16 1 95.94 12.174 2.20687 2.17491 2.07839 1.25463 2.07293 
11 1 95.94 10.5795 0.0521606 2.12244 0.463819 -1.31035 8.63421 
86 1 95.94 14.0911 1.94516 3.88796 -3.68243 -0.100525 -0.344729 
113 1 95.94 16.2705 3.79546 3.9337 1.88349 -0.78186 -0.136791 
15 1 95.94 14.3639 0.253527 1.50424 7.06414 1.96886 4.57001 
19 1 95.94 18.5084 0.212041 1.71944 2.49826 -3.43217 -3.61914 
20 1 95.94 16.4027 2.38717 1.81899 -1.50496 6.26491 2.59977 
89 1 95.94 16.7494 0.379676 4.03387 -10.3669 -3.3837 -1.72151 
90 1 95.94 18.604 2.3512 3.83286 -3.65078 1.7342 -6.54893 
23 1 95.94 22.5682 0.125381 1.98698 9.91777 -4.15163 11.0858 
24 1 95.94 20.5769 2.24973 1.86437 2.76844 -7.65108 -0.386675 
3460 1 95.94 24.0276 2.01176 1.86051 -3.78187 6.60842 -10.3045 
32 1 95.94 4.04172 6.20191 2.39176 -12.8859 -1.59923 1.28849 
28 1 95.94 0.44585 5.99592 1.76302 8.1926 -3.62884 -1.93732 
26 1 95.94 2.49865 5.87696 0.296732 3.9949 1.84082 -2.50986 
33 1 95.94 7.97291 4.25028 0.156887 -5.35549 -5.96324 4.73567 
55 1 95.94 6.06134 7.96845 2.40373 1.9831 0.545859 -0.098673 
30 1 95.94 5.78661 5.96897 0.212537 -7.61526 -8.16543 0.282993 
36 1 95.94 8.39703 6.02004 2.12827 5.79748 0.506296 4.11113 
109 1 95.94 12 4.24431 3.86997 1.61328 1.45986 3.16485 
40 1 95.94 11.9389 6.15518 1.92716 -0.460351 10.9329 6.27679 
34 1 95.94 9.86708 6.59303 0.0640023 -2.29014 -1.58891 8.70675 
39 1 95.94 14.0125 4.19077 1.7199 0.157574 1.54493 -2.86544 
63 1 95.94 14.3226 7.89628 2.2036 2.83003 1.14943 -0.418051 
43 1 95.94 18.5206 4.22727 1.88348 -7.7879 -1.23047 -4.79532 
44 1 95.94 16.369 5.79989 2.04567 -4.78653 5.33758 -3.72897 
67 1 95.94 18.3719 7.83462 1.81006 3.50153 -1.55832 7.04868 
48 1 95.94 20.476 6.1852 2.29306 -0.20848 -0.149516 3.57639 
47 1 95.94 22.4663 4.2386 2.08338 -7.42282 -4.50604 3.03355 
3484 1 95.94 24.3022 6.16416 2.28327 -2.07648 0.930293 -4.04714 
117 1 95.94 20.5697 4.28656 3.96925 7.89785 -3.91747 -3.19072 
46 1 95.94 22.5242 6.27019 0.238122 -1.11276 -2.90797 2.19767 
52 1 95.94 -0.00418083 10.4698 2.22089 -11.1149 -3.74624 2.70336 
49 1 95.94 0.226445 8.42352 0.317753 -2.77215 1.38602 0.885596 
53 1 95.94 3.58663 8.19813 0.324339 3.51248 -2.37288 6.41664 
51 1 95.94 2.18483 8.30761 2.11047 6.01529 -6.67666 0.300418 
122 1 95.94 2.18453 10.4185 3.93235 -2.40831 -0.282419 6.26285 
867 1 95.94 1.9288 12.2054 1.92905 -4.59592 0.362101 -0.918097 
56 1 95.94 4.1316 10.1029 2.0301 0.230592 -4.51936 1.59703 
57 1 95.94 8.02167 8.33542 0.214394 -9.5429 0.964016 5.71926 
941 1 95.94 4.26404 12.1566 4.07977 1.45991 -0.375007 -2.56316 
58 1 95.94 10.3862 9.80246 0.237781 -7.78089 -1.66709 2.72748 
60 1 95.94 8.46162 10.0298 1.95454 -4.56553 -3.85488 -5.70816 
59 1 95.94 10.3443 8.30842 2.31128 -7.80767 5.53249 -1.37615 
875 1 95.94 10.3516 11.8697 2.01018 0.154803 -0.11455 2.1945 
945 1 95.94 8.43728 12.1051 4.04006 -5.00621 2.594 1.2122 
64 1 95.94 12.579 10.1679 2.15445 0.46381 4.11606 2.81299 
68 1 95.94 16.3285 9.97636 2.06207 -3.03307 -8.30435 -0.757829 
949 1 95.94 12.4613 11.9175 3.94465 4.43267 -2.14405 2.3201 
879 1 95.94 14.665 11.9051 1.79514 -7.68219 -1.62504 -0.0702451 
66 1 95.94 18.4229 10.515 0.093205 0.366162 8.20616 -1.24462 
138 1 95.94 18.2081 10.2416 3.99842 -3.64645 -5.94613 -6.60555 
72 1 95.94 19.9652 10.1985 2.15045 6.00375 -10.8868 3.10242 
71 1 95.94 22.3315 8.28987 2.08322 -6.81421 -5.65107 8.72722 
3508 1 95.94 24.4254 10.2136 2.28719 0.817529 -2.49846 0.72189 
4321 1 95.94 24.4102 12.1145 -0.00226187 -9.6998 -5.75542 8.15675 
80 1 95.94 4.27066 1.97896 6.06015 -1.50936 5.89281 3.19015 
103 1 95.94 6.68913 3.95522 6.38177 -1.6543 -10.9144 0.48761 
173 1 95.94 4.16361 4.04916 8.05118 3.98409 5.24214 8.73923 
105 1 95.94 8.38983 3.94852 4.51862 2.16569 -2.93263 -9.62438 
82 1 95.94 9.99155 1.85082 4.13127 -6.25094 -8.40634 7.51873 
84 1 95.94 8.29322 1.65163 6.29521 0.407306 -4.55601 0.916469 
88 1 95.94 12.2041 1.85808 6.05622 5.76703 -1.179 11.6097 
157 1 95.94 12.289 0.212992 8.09353 -1.00525 -10.7 -1.23354 
158 1 95.94 14.2014 1.90602 8.00626 7.05782 5.58994 1.39497 
111 1 95.94 13.9923 3.7421 5.76753 -7.7471 4.98897 0.440559 
91 1 95.94 18.397 0.14747 6.2051 -0.824629 9.92226 4.58249 
93 1 95.94 20.15 0.168882 4.10781 -8.31953 -5.53449 0.616938 
92 1 95.94 16.3913 2.00604 6.13575 -4.92107 -0.042095 0.971549 
96 1 95.94 20.2515 2.29467 5.99388 -3.44055 0.595523 -6.16048 
95 1 95.94 22.4283 0.1238 6.19024 2.72254 5.39001 -8.14509 
94 1 95.94 22.5286 2.29153 4.33827 6.39165 -1.01739 5.74028 
166 1 95.94 22.694 2.0126 8.00435 -3.32901 -0.465502 4.86495 
3532 1 95.94 24.3667 2.27289 6.11173 -6.39048 2.30625 7.29616 
98 1 95.94 1.99004 5.80691 4.16564 1.14676 0.891078 -4.10121 
99 1 95.94 1.88963 4.08729 6.13962 -0.0292813 -0.980695 -1.03427 
104 1 95.94 4.04348 6.23825 6.07057 -1.42927 -1.26227 -0.0446185 
170 1 95.94 2.04722 6.10159 8.09298 -0.122146 -5.16034 4.04671 
121 1 95.94 0.232354 7.99928 4.15315 2.04869 4.3117 4.22004 
102 1 95.94 5.9396 5.91988 4.36574 -0.826387 -5.8914 -0.331626 
127 1 95.94 6.09042 8.07466 6.52319 -0.0225913 -3.49919 -6.7893 
129 1 95.94 8.15021 8.05727 4.4307 -2.90865 0.256768 8.92447 
133 1 95.94 12.2089 8.12843 4.10154 7.92954 1.42366 0.337155 
107 1 95.94 10.3932 4.08772 6.01044 -2.21365 3.69147 -8.8516 
108 1 95.94 8.20602 5.75877 6.27363 4.67354 0.181178 8.35947 
106 1 95.94 10.1167 6.07653 4.16095 -0.205983 3.58432 -4.81334 
178 1 95.94 10.4581 5.54663 8.01808 -0.912112 1.65401 -1.64012 
131 1 95.94 10.1645 7.76771 6.2223 -2.92235 -6.61873 2.80415 
110 1 95.94 14.5689 5.62813 4.09483 -1.63969 -8.2966 6.46048 
181 1 95.94 12.4031 4.1934 8.14022 -11.5229 -4.26508 -1.16996 
112 1 95.94 12.5804 6.15137 6.00645 9.78645 -1.75884 0.854512 
135 1 95.94 14.5921 7.99906 6.23696 2.51145 2.89223 0.840336 
116 1 95.94 16.1564 6.02752 6.25375 -1.66403 5.28488 -0.860654 
185 1 95.94 16.6122 4.09843 8.1162 4.96408 -1.53181 -2.01731 
115 1 95.94 18.6012 4.21902 6.08354 -5.58933 2.05566 -1.82666 
114 1 95.94 18.1505 5.9534 4.36216 -1.51633 0.672422 3.07059 
139 1 95.94 18.5693 8.08098 6.09354 7.97343 2.15519 3.58633 
186 1 95.94 18.566 6.11744 8.1642 9.49199 -0.0840908 -5.27719 
137 1 95.94 16.5422 7.87887 4.23905 -2.09743 3.74289 -7.04936 
3556 1 95.94 24.0901 6.60607 6.31785 13.0777 1.59474 5.79539 
3577 1 95.94 24.2805 8.12965 4.19676 0.232595 3.12518 -5.97283 
120 1 95.94 20.6153 6.25023 6.28285 -0.681448 6.38294 0.245617 
118 1 95.94 22.3505 6.18552 4.15933 2.62977 9.42649 3.35527 
119 1 95.94 22.4641 4.39968 6.40257 -4.3945 4.76815 -9.77058 
125 1 95.94 3.97771 8.32424 4.24925 0.426005 -0.812108 -4.39211 
123 1 95.94 2.1588 8.25465 5.86832 -2.33063 -0.553727 -14.6395 
197 1 95.94 4.05658 8.29103 8.04464 10.4721 8.89148 -2.41908 
194 1 95.94 2.03311 10.3629 7.93022 0.45425 6.53836 -2.76324 
128 1 95.94 4.4507 10.2074 6.02954 -6.95709 -8.27904 -2.744 
126 1 95.94 6.37563 10.1752 4.10254 2.55952 0.135449 -2.58315 
132 1 95.94 7.73361 10.3826 6.14125 8.60323 6.82888 -3.22767 
130 1 95.94 10.3647 9.90524 4.56591 -3.62649 1.29629 -3.27436 
202 1 95.94 10.2814 9.83141 7.66817 3.26675 7.54567 0.786297 
947 1 95.94 10.6736 12.2117 5.8107 -1.45725 2.02021 -5.42872 
1021 1 95.94 12.0557 11.7199 8.075 -4.55288 5.799 -3.28321 
1017 1 95.94 8.55763 12.1897 7.6635 3.61943 6.11824 1.66221 
953 1 95.94 16.3183 12.1331 4.17452 5.7909 -9.02638 1.41043 
951 1 95.94 14.328 12.2283 6.27579 5.78748 -4.49645 -0.981374 
136 1 95.94 12.3224 9.39864 6.07862 -2.24215 0.59627 -2.95457 
134 1 95.94 14.5422 9.93923 4.16813 1.44249 -5.14413 5.37987 
140 1 95.94 16.3472 10.1893 6.18777 3.09391 7.24246 -3.6192 
141 1 95.94 20.2816 8.18968 4.24449 0.96014 -10.6922 -5.72954 
955 1 95.94 18.0747 12.2078 6.42659 -1.8133 -1.564 8.30854 
3580 1 95.94 24.2327 10.1229 6.23233 1.86353 -0.423666 -5.11119 
4393 1 95.94 24.264 11.8844 4.34726 -0.171667 6.20016 2.32985 
142 1 95.94 22.1895 10.1504 4.30813 -3.01945 9.73977 0.29707 
959 1 95.94 22.3044 12.2163 6.3064 -0.267113 -6.64482 1.78283 
144 1 95.94 20.4868 10.506 6.31796 1.32584 -6.62776 -5.51943 
143 1 95.94 22.1369 8.28276 6.08462 6.42994 1.21077 1.64017 
147 1 95.94 2.07811 0.156753 10.3482 -3.52615 -5.22636 15.119 
217 1 95.94 0.0237939 0.0546491 12.1705 2.77061 -3.58991 0.186129 
148 1 95.94 0.34485 2.17736 10.4296 -4.57381 -11.2494 -6.35464 
146 1 95.94 1.91545 2.23983 8.3086 1.92982 5.91792 -1.25576 
152 1 95.94 3.87543 2.13885 10.0695 3.36244 -9.82871 -2.24036 
149 1 95.94 4.14426 0.0341916 8.20998 0.583697 -3.78719 5.00246 
150 1 95.94 6.1099 2.0294 8.56886 -3.09603 6.31476 6.53714 
225 1 95.94 8.17173 0.188577 12.2084 -4.22986 -1.45381 -0.0113098 
222 1 95.94 6.0145 2.17321 11.9778 1.6422 5.47894 -5.41114 
177 1 95.94 8.26852 4.04675 8.6435 -10.9936 -4.35046 -1.45946 
154 1 95.94 10.3003 2.30711 8.42046 0.833041 2.68902 -2.44628 
156 1 95.94 8.46685 2.02273 10.2157 -0.325873 9.03474 3.15913 
179 1 95.94 10.5656 3.84932 10.4093 0.000570884 4.98942 -3.62373 
155 1 95.94 10.7853 0.119413 10.1273 -6.64729 -8.44302 -4.35387 
159 1 95.94 14.2625 0.404964 10.2112 6.15689 -3.32742 -4.3787 
160 1 95.94 12.5487 2.2757 10.279 7.44703 1.36682 -2.72562 
162 1 95.94 18.1613 1.70809 8.21148 -2.84142 -0.077693 5.1833 
163 1 95.94 18.6142 0.124559 10.3786 1.7478 -7.26168 7.85893 
234 1 95.94 18.5366 2.63324 12.2383 -7.32167 -7.55693 7.18405 
164 1 95.94 16.3829 2.22761 10.3486 3.07454 -0.665077 -3.78895 
233 1 95.94 16.4253 0.304648 12.1804 -5.89033 7.55946 1.5859 
167 1 95.94 22.5848 0.102537 10.5631 4.65375 4.85477 -4.5395 
165 1 95.94 20.683 0.303656 8.18987 -3.70233 1.74206 -1.45891 
168 1 95.94 20.5426 2.14012 10.327 -9.63524 1.88671 1.92892 
191 1 95.94 22.834 4.0668 10.6065 -2.88533 2.13745 -5.04264 
172 1 95.94 0.148012 6.14976 10.1207 4.28385 8.06239 0.441253 
171 1 95.94 2.19649 4.10068 10.4931 -2.52553 0.0793248 4.87069 
242 1 95.94 2.0702 5.9732 12.2167 -3.00103 2.5888 -3.16171 
241 1 95.94 0.208366 4.36094 12.1797 1.18131 4.44592 -2.43158 
175 1 95.94 6.09406 4.09402 10.2623 4.60165 7.58348 1.52417 
176 1 95.94 4.10855 6.11914 9.98326 -2.52667 0.893178 6.42611 
199 1 95.94 6.30622 8.11226 9.88876 -3.00023 -6.05439 0.47318 
174 1 95.94 5.90959 6.03871 8.29956 -9.92981 -8.92162 8.692 
201 1 95.94 8.05243 7.87174 8.23796 4.21482 -2.848 -7.357 
180 1 95.94 8.17663 5.97278 10.3246 -2.6052 8.18988 -3.13836 
269 1 95.94 4.25579 8.15262 12.0471 -0.555896 7.43324 -0.151981 
246 1 95.94 6.2149 6.46488 11.7994 6.68962 2.94639 3.49115 
203 1 95.94 10.3928 7.9722 10.1111 3.37008 -2.98429 1.67666 
205 1 95.94 12.5528 7.98427 8.46442 -4.43982 0.836616 3.94426 
182 1 95.94 14.4953 6.15274 8.41827 -2.37671 3.76602 -0.514781 
183 1 95.94 14.3956 4.14989 10.0092 7.55135 -2.96442 -6.17839 
184 1 95.94 12.4097 6.00729 10.2559 -3.41921 3.29915 1.05512 
207 1 95.94 14.5047 8.12121 10.2729 0.408513 5.5354 -6.54332 
277 1 95.94 12.2859 7.89335 12.1924 -5.41791 6.36673 -0.964261 
257 1 95.94 16.3056 4.24901 12.2016 1.59883 0.920963 -7.21937 
254 1 95.94 14.3663 6.20551 12.133 4.34665 1.85471 -5.53423 
209 1 95.94 16.7913 7.92226 8.19925 9.68708 5.72851 -5.22556 
187 1 95.94 18.4488 4.21756 10.0948 -5.92274 11.119 1.92643 
188 1 95.94 16.3721 6.32358 10.1974 3.28897 -3.16763 -1.39075 
211 1 95.94 18.5838 7.89726 10.7983 -3.12464 2.91647 -0.541297 
258 1 95.94 18.4822 6.10279 12.1525 5.28767 0.142713 -11.0069 
189 1 95.94 20.9455 4.09333 8.3752 -0.224203 0.791924 -2.37898 
190 1 95.94 22.5986 6.5614 8.29052 -1.09681 6.43014 -3.81578 
192 1 95.94 20.777 6.33745 10.1899 -1.9802 5.64893 -1.96103 
196 1 95.94 0.267633 10.7583 10.3625 -0.356023 4.30126 1.24762 
195 1 95.94 2.11383 8.38379 10.1421 4.75476 -6.45273 14.2606 
265 1 95.94 0.250417 8.22358 12.0733 -4.73003 -2.87637 6.45542 
193 1 95.94 0.0537598 8.44553 8.21152 0.880069 -7.81651 5.20137 
266 1 95.94 2.39698 10.4939 11.874 -0.282605 3.85775 5.44551 
270 1 95.94 6.42487 10.4299 12.191 -1.39469 -0.567937 3.39623 
200 1 95.94 4.14767 10.4081 10.1107 0.947874 2.22972 -2.05222 
198 1 95.94 6.61033 10.2029 8.47996 4.1206 0.0499434 2.45467 
1019 1 95.94 10.0833 12.1665 10.1373 -1.46655 -4.92467 -5.51293 
1093 1 95.94 12.0486 12.0671 12.2373 -4.3726 -8.79552 9.07437 
204 1 95.94 8.47051 10.0027 10.5653 -5.35744 -6.25958 3.75543 
208 1 95.94 12.092 10.1238 9.9186 -4.82572 -2.07692 4.12845 
1025 1 95.94 16.3544 11.9044 8.35991 10.5945 -0.14854 5.47389 
206 1 95.94 14.497 9.88597 8.21875 -6.49313 11.2024 3.43456 
1023 1 95.94 14.2698 11.9821 9.95298 -4.43871 -4.32657 3.28794 
1027 1 95.94 18.7852 11.9275 10.2001 -2.98289 -1.37674 0.687793 
216 1 95.94 20.4107 9.88659 10.6756 7.96382 8.75183 -4.0154 
212 1 95.94 16.5571 10.2819 10.5955 -2.59543 -7.84812 0.342745 
210 1 95.94 18.5187 10.0635 8.2447 -2.61394 -5.48411 -9.83552 
1029 1 95.94 20.3262 12.1805 8.32883 1.03144 -3.22859 -3.76526 
3652 1 95.94 24.3659 10.5382 10.5365 9.63311 -1.65534 -3.25027 
213 1 95.94 20.5387 8.2403 8.35336 -3.13402 4.10307 -0.195934 
215 1 95.94 22.5282 8.57179 10.5086 -8.48699 3.16507 -1.27369 
214 1 95.94 22.539 9.86756 8.36204 0.234504 -8.06509 8.46036 
1031 1 95.94 22.3473 12.051 10.468 1.85374 3.55124 -6.37713 
243 1 95.94 2.35876 4.06834 14.1651 -0.775709 -7.85837 -3.07844 
290 1 95.94 2.26224 1.94016 16.1767 -3.95597 5.02592 9.45389 
313 1 95.94 0.360863 3.78604 16.3438 -3.76826 -8.16837 10.7182 
220 1 95.94 0.557119 2.08909 13.8819 -1.51039 -3.09449 2.17071 
218 1 95.94 2.41433 1.80467 12.3974 2.65371 4.046 2.10908 
224 1 95.94 4.37435 1.9167 14.544 -1.27608 2.45937 -0.441014 
249 1 95.94 8.14036 3.93892 12.3254 -7.65054 0.86034 -8.32984 
223 1 95.94 6.17887 0.0621504 14.3394 -4.29548 -6.67271 2.50121 
228 1 95.94 8.20677 1.8685 14.2864 -1.95534 -0.832189 -7.34873 
298 1 95.94 10.5352 1.83026 15.9328 5.78585 -1.39957 2.57501 
226 1 95.94 10.4659 2.06977 12.4006 -4.29637 -3.34761 -0.579838 
297 1 95.94 8.37358 0.0279747 16.0758 -0.80231 -3.96653 0.51726 
232 1 95.94 12.4406 2.1643 14.0746 1.03974 -3.97897 -1.99294 
236 1 95.94 16.2793 2.0951 14.5362 11.5753 7.21425 0.970245 
229 1 95.94 12.79 0.0757686 12.3834 -2.65464 0.874755 3.81092 
230 1 95.94 14.3217 2.2912 12.3936 -5.0196 -3.64753 -0.137968 
301 1 95.94 12.4576 0.0839013 16.18 3.436 -4.36175 3.84656 
231 1 95.94 14.5188 0.341058 14.6342 1.50003 -0.184154 -1.41498 
309 1 95.94 20.4459 0.0188709 16.3479 3.36184 2.83875 -4.75828 
306 1 95.94 18.6844 2.36021 16.2423 -3.14395 9.00516 -0.0693713 
237 1 95.94 20.4165 0.319655 12.5033 -4.0526 3.5371 5.46897 
259 1 95.94 18.4074 4.01903 14.525 -3.44977 3.72464 1.50634 
235 1 95.94 18.3335 0.597374 14.4443 -2.09141 -9.58414 -6.14688 
240 1 95.94 20.7467 2.16228 14.1041 4.50201 6.1674 4.96729 
263 1 95.94 22.6743 3.83973 14.3917 3.97959 -3.10797 -3.75403 
239 1 95.94 22.5189 0.470701 14.735 2.4131 -7.54052 -0.361046 
238 1 95.94 22.7394 2.03149 12.2939 1.21692 -0.683003 2.07813 
317 1 95.94 4.05442 4.15049 16.2107 -2.89116 5.09829 -4.67361 
244 1 95.94 0.241682 6.4126 14.503 -9.70003 2.79419 3.33458 
314 1 95.94 2.25763 6.10503 16.3584 0.259625 -0.846181 1.73104 
247 1 95.94 6.07831 4.31644 14.1301 -3.25055 -2.01665 1.81658 
321 1 95.94 8.05542 4.21576 16.1057 0.963758 -3.37911 -5.61791 
248 1 95.94 4.08958 6.25928 14.0275 -8.10189 0.0564728 -2.34974 
318 1 95.94 5.74288 6.36485 16.2556 -11.6382 -4.49459 -0.672214 
245 1 95.94 4.30733 4.32946 12.2681 -5.26611 -1.89981 -8.51916 
251 1 95.94 10.2864 4.20787 14.6093 3.45692 0.131858 -2.42107 
250 1 95.94 10.1335 5.79196 12.4104 1.15031 -1.29383 1.06322 
252 1 95.94 8.23814 6.39078 14.0489 2.69137 3.75445 -5.78993 
255 1 95.94 14.1658 4.22171 14.1347 -1.31854 3.46427 6.09581 
256 1 95.94 12.3365 6.3717 14.5326 4.09377 3.06427 -0.565691 
260 1 95.94 16.2821 6.11882 14.1903 -0.53564 5.87571 -1.37377 
253 1 95.94 12.4165 4.46438 12.3877 -3.92929 -0.95496 2.19383 
329 1 95.94 16.6094 4.39154 16.3082 -1.54291 4.12561 1.59237 
283 1 95.94 18.5042 7.7772 14.8067 -4.42147 -2.37916 -2.86639 
264 1 95.94 20.8075 5.78851 14.6622 0.6924 0.153722 1.78 
287 1 95.94 22.6627 8.13234 14.3249 -7.43566 -6.56757 6.24475 
357 1 95.94 20.6022 8.04119 16.1865 3.82822 0.677016 2.61199 
262 1 95.94 22.6028 6.01553 12.3962 -6.67887 7.04766 -0.922867 
261 1 95.94 20.8852 4.19988 12.3903 -6.86359 1.0716 4.94805 
267 1 95.94 2.43422 8.63439 14.2437 1.06226 0.651909 -4.01191 
338 1 95.94 2.29765 10.6254 16.3294 -14.2195 -0.455756 -0.62628 
268 1 95.94 0.474369 10.0409 14.2689 -3.96454 0.68106 -5.92093 
345 1 95.94 7.83816 8.27521 16.3285 2.27772 6.44085 0.167917 
272 1 95.94 4.60406 10.6269 14.1345 -5.65247 -2.02235 0.0368725 
271 1 95.94 5.74266 8.27059 14.4809 -0.232993 2.99426 -0.608064 
342 1 95.94 5.92587 10.139 16.3237 0.427047 1.37928 2.24704 
276 1 95.94 8.07707 10.1097 14.2717 7.36609 -0.762113 3.52016 
273 1 95.94 8.14953 8.24985 12.4178 0.151471 -0.00482914 10.3189 
275 1 95.94 10.375 8.19859 14.4463 -0.744561 5.42787 3.37896 
274 1 95.94 10.4391 10.0256 12.352 -2.1841 -1.06014 4.81279 
279 1 95.94 14.5727 8.27681 14.6248 3.94166 -3.56221 5.79666 
280 1 95.94 12.4062 9.85513 14.4894 4.28705 -5.58649 -7.67085 
278 1 95.94 14.1404 10.0452 12.3836 3.57106 -3.00528 -1.93046 
1097 1 95.94 16.1371 12.1932 12.2919 -0.986851 -0.988768 -5.33456 
1095 1 95.94 14.2143 12.1795 14.6721 0.933984 -1.07539 -0.373095 
281 1 95.94 16.4503 8.37527 12.641 -7.61837 8.67119 -0.104104 
284 1 95.94 16.3657 9.87794 14.538 -1.54981 -2.58254 -6.65345 
282 1 95.94 18.3139 9.97369 12.8127 -1.89714 -10.7739 -6.61553 
1173 1 95.94 20.2312 12.2577 16.3184 2.76598 -2.71126 4.99399 
1101 1 95.94 20.0814 12.1425 12.6194 -0.00777132 7.83233 6.76979 
1169 1 95.94 16.4113 12.0043 16.283 -1.58817 -1.88484 -6.72225 
1099 1 95.94 18.4881 12.2503 14.5459 -0.518791 -1.4968 1.98128 
286 1 95.94 22.4546 10.3124 12.6606 9.61336 -4.6004 -6.09414 
285 1 95.94 20.6549 8.22314 12.8724 -7.46233 -0.740506 -2.49236 
3724 1 95.94 24.4265 10.1508 14.4034 9.56472 -2.93223 -11.8481 
288 1 95.94 20.5532 10.3461 14.2756 -2.53184 -5.92903 -4.46227 
358 1 95.94 22.5131 10.2229 16.2861 1.36936 -6.68946 1.89853 
291 1 95.94 2.13768 0.0203109 18.0803 -4.99324 5.30875 4.21082 
315 1 95.94 2.07413 3.95976 18.4191 -5.53849 3.55265 8.30008 
296 1 95.94 4.09292 1.56464 18.2966 -1.58148 2.34891 5.34397 
294 1 95.94 6.06127 2.33558 16.3638 3.4199 -8.06561 5.35622 
319 1 95.94 5.91693 4.03223 18.0565 -0.315665 -6.83 -1.12185 
366 1 95.94 6.45947 1.77783 20.4397 -3.1664 3.71407 5.81764 
300 1 95.94 8.04021 2.05681 18.0368 0.995789 -5.00855 -9.54393 
389 1 95.94 4.27695 3.71364 20.1676 -3.10939 3.09073 8.40751 
365 1 95.94 4.42412 0.1604 20.4404 3.03392 -3.3154 -6.16289 
370 1 95.94 9.80937 2.26904 20.2435 -6.13114 0.884575 -0.592287 
304 1 95.94 12.1903 2.23736 18.3654 -1.48361 0.0245561 6.80112 
397 1 95.94 12.1017 4.05711 20.1057 5.64302 6.47691 -6.09549 
323 1 95.94 10.3208 3.80368 17.9081 9.66733 -6.34087 0.237626 
299 1 95.94 10.3287 0.102992 18.1861 9.03478 -2.81986 7.78506 
373 1 95.94 12.3607 0.0223978 20.2881 -8.15287 3.14945 3.45952 
302 1 95.94 14.486 2.28975 16.4515 8.7651 1.82438 5.39387 
327 1 95.94 14.3323 4.01718 18.6245 5.35437 -2.05742 -1.49284 
303 1 95.94 14.2654 0.122769 18.5115 -2.67449 -3.29881 -0.330399 
381 1 95.94 20.2605 0.096136 20.3501 0.457998 -2.76615 -4.82024 
305 1 95.94 16.5646 0.172747 16.8717 8.71403 3.16036 -8.79665 
308 1 95.94 16.6504 2.19689 18.5811 -0.459039 0.0174598 -0.392951 
331 1 95.94 18.4962 3.83788 18.2634 6.16502 6.14252 -3.46586 
312 1 95.94 20.3225 2.02868 18.6498 -6.90219 -0.676428 -3.42658 
310 1 95.94 22.1733 1.71288 16.6688 1.97664 0.417026 -8.53013 
333 1 95.94 20.8623 4.03724 16.6177 5.55889 2.52385 0.738906 
3748 1 95.94 24.4549 1.47864 18.8866 -2.81821 0.120558 3.42422 
335 1 95.94 22.8399 3.49191 18.6818 -3.99095 4.01991 6.91924 
311 1 95.94 22.4354 0.205871 18.7338 -0.285606 -4.30395 1.71992 
316 1 95.94 0.0294381 6.30994 18.7358 -4.82782 9.14729 -1.55809 
386 1 95.94 2.42153 5.95916 19.9601 -2.26883 -5.96413 5.57152 
385 1 95.94 0.234162 4.09801 20.1463 -1.76717 -3.56594 5.2239 
320 1 95.94 4.38191 5.82737 18.4298 -2.62994 -4.15429 7.62156 
393 1 95.94 7.90232 4.31486 20.0715 0.635516 5.08625 6.30471 
390 1 95.94 6.40915 6.09986 20.2896 3.7047 7.13807 -0.940026 
343 1 95.94 6.11742 8.15464 18.5767 -0.323534 3.75592 5.02898 
322 1 95.94 10.29 6.09115 16.3857 1.00729 1.56231 0.552627 
324 1 95.94 8.25719 5.93061 17.8849 -2.89357 -9.98214 -3.74546 
328 1 95.94 12.1798 6.19483 18.4063 0.426845 -1.30488 4.57952 
417 1 95.94 8.22311 7.99324 20.0467 4.99823 2.1504 1.1448 
347 1 95.94 10.0964 8.11502 18.4988 -1.43035 -9.07791 0.394219 
394 1 95.94 10.0385 5.68485 20.2224 -1.87445 -2.49909 -3.54194 
325 1 95.94 12.6163 4.22209 16.4787 -2.80147 -2.54381 -11.8078 
326 1 95.94 14.1397 6.27335 16.7005 -4.08035 4.52594 -0.351387 
332 1 95.94 16.4645 5.7406 18.5434 -8.84222 -4.6844 9.83474 
353 1 95.94 16.6002 7.76131 16.5143 2.35702 -4.65427 0.330576 
330 1 95.94 18.7671 5.67808 16.4788 -7.43182 -2.36195 5.33017 
355 1 95.94 18.4774 7.80329 18.4833 -9.8565 -4.53459 -1.08507 
334 1 95.94 22.8503 6.02923 16.439 -3.49257 0.442793 9.51439 
336 1 95.94 20.4802 5.97042 18.8623 1.04196 2.86539 2.21671 
359 1 95.94 22.5789 7.67989 18.7942 -4.37357 3.52366 3.99376 
337 1 95.94 0.347985 8.21558 16.4573 6.14761 -7.159 0.778935 
339 1 95.94 2.25888 8.36293 18.2509 3.15977 5.95237 -1.12817 
340 1 95.94 0.308142 10.169 18.5232 -0.876395 -3.26104 1.37885 
341 1 95.94 4.18865 8.38202 16.6139 -4.74634 -4.34788 -0.902589 
344 1 95.94 4.40852 10.6449 18.4906 0.341245 -1.14258 -13.5109 
348 1 95.94 7.92826 10.3457 18.4758 -7.00358 -1.66806 -1.42649 
346 1 95.94 10.1921 10.1949 16.4156 -0.293434 10.0439 -7.41675 
349 1 95.94 12.1117 8.20093 16.7415 0.619177 -5.04929 -4.84045 
352 1 95.94 11.9397 10.5453 18.5124 -1.02302 -4.76702 2.32218 
1233 1 95.94 8.48061 12.0762 20.4213 1.70224 -2.16736 -9.76099 
350 1 95.94 14.3547 10.1681 16.6337 -0.170515 -2.71667 1.08647 
351 1 95.94 14.9121 8.32641 18.5312 -6.05805 -1.01211 -0.584161 
1167 1 95.94 14.374 11.9874 18.4855 -0.396789 7.50745 5.08684 
354 1 95.94 18.7767 10.2386 16.3621 -2.66045 3.13957 -2.19871 
356 1 95.94 16.5604 10.2633 18.0461 7.52407 -1.38172 4.00389 
426 1 95.94 18.2913 10.0421 20.169 -5.95994 3.65592 -4.19991 
360 1 95.94 20.2404 9.99352 18.338 -0.047851 -9.28011 -3.11921 
3796 1 95.94 24.2542 10.0965 18.5735 5.607 3.53323 2.05186 
1175 1 95.94 21.9379 12.1632 18.1232 0.232767 1.76848 -1.87079 
364 1 95.94 0.0268785 2.12174 22.2601 3.95115 1.46018 -2.83556 
362 1 95.94 1.79993 1.819 20.4634 -3.5725 -1.67751 6.48995 
368 1 95.94 3.85591 2.24361 22.3895 5.49389 -5.47762 4.79075 
367 1 95.94 5.79725 0.369359 22.5542 -2.10532 1.59869 -6.1661 
391 1 95.94 6.10514 3.75419 22.2535 -2.82015 2.99825 12.899 
437 1 95.94 4.24314 0.397736 24.4106 -1.44361 -4.57946 5.73584 
441 1 95.94 8.14627 0.325497 24.3636 6.2448 1.56273 5.08998 
372 1 95.94 8.28505 2.13906 22.4943 5.76466 -0.838589 -6.25907 
376 1 95.94 12.0017 1.81771 22.514 12.3598 6.26402 1.25219 
442 1 95.94 10.242 2.25281 24.4261 -3.73878 -5.55968 4.62692 
469 1 95.94 12.0779 4.05426 24.4593 -1.16741 -5.51903 3.66357 
446 1 95.94 13.8682 1.8749 24.4214 -2.17155 -7.59688 3.84465 
374 1 95.94 14.5872 2.01939 20.4508 4.19315 -3.53993 -0.346003 
380 1 95.94 16.288 1.93293 22.6029 -10.3536 -3.45993 7.13721 
399 1 95.94 13.7584 3.81995 22.443 3.25469 -5.90477 -6.10627 
379 1 95.94 18.5414 0.168077 23.0951 2.08516 6.06252 -4.2527 
378 1 95.94 18.27 1.80638 20.7503 3.06868 -6.99766 -5.55199 
403 1 95.94 18.5137 3.72116 23.2223 -5.10142 -5.55665 -7.06145 
401 1 95.94 16.513 3.99976 20.8387 -2.59422 -2.1714 6.94145 
383 1 95.94 22.862 0.089878 22.2457 -4.2051 -14.2307 -3.22558 
405 1 95.94 20.5744 3.53713 20.7698 -3.27789 16.595 1.27569 
407 1 95.94 22.4346 3.73573 22.8877 0.818817 8.5144 4.16597 
384 1 95.94 20.5375 1.55717 22.8541 -0.411436 -1.63394 0.641821 
382 1 95.94 22.7046 1.89663 20.7266 1.93669 4.42302 1.02418 
388 1 95.94 0.336931 6.22673 21.6945 3.8918 8.98308 6.79326 
387 1 95.94 2.08349 4.35303 22.3529 -1.84094 5.57417 4.95223 
411 1 95.94 2.19939 7.80748 22.1188 3.17658 -4.87647 -3.38773 
458 1 95.94 2.0273 6.42135 24.033 -3.56938 0.263311 -3.75522 
415 1 95.94 6.45011 8.01539 22.4142 -1.45606 6.02265 2.02382 
462 1 95.94 6.23326 6.12503 24.2603 -5.75093 -2.74145 6.12915 
461 1 95.94 4.26063 4.15305 24.5002 -8.01418 2.91447 -0.41878 
392 1 95.94 4.42555 5.99388 22.2625 -1.97665 2.4877 2.42135 
421 1 95.94 12.106 8.05787 20.4959 7.02074 -6.20736 4.90377 
419 1 95.94 10.1591 7.84626 22.2729 -3.5571 -1.23178 5.35288 
396 1 95.94 8.24543 5.9125 22.2701 1.59839 -4.30771 2.79961 
395 1 95.94 10.3115 4.35469 22.4718 -8.00461 -3.69541 -5.62107 
493 1 95.94 12.0107 7.90816 24.4775 -4.1118 -4.81483 1.13547 
489 1 95.94 8.60347 7.95791 24.2037 -2.45316 -1.27053 -5.92549 
400 1 95.94 12.2743 6.21621 22.0392 -5.16404 7.90345 -1.26942 
398 1 95.94 14.1004 5.8103 20.4756 2.92154 -1.0062 -3.46184 
404 1 95.94 15.7491 6.02294 22.2989 -2.93752 4.67131 -1.20356 
497 1 95.94 16.1043 7.93287 24.2597 -5.431 3.70322 -1.11905 
473 1 95.94 16.049 4.10886 24.3273 3.13972 1.01347 -4.63135 
425 1 95.94 16.39 7.62575 20.6239 -0.551975 2.38231 -2.49746 
402 1 95.94 18.2992 5.78179 20.9597 0.312352 -0.409543 -0.867006 
408 1 95.94 20.4121 5.82351 22.3863 -11.583 2.32175 0.165419 
427 1 95.94 18.4068 7.95935 22.3316 -1.12427 -0.221772 2.5037 
429 1 95.94 20.5333 7.87089 20.4674 1.09719 1.60429 -0.107811 
406 1 95.94 22.5788 5.59215 20.5522 -3.3797 -3.81827 -4.05736 
501 1 95.94 20.4881 8.16691 24.3184 -5.90983 -6.12548 0.834036 
3865 1 95.94 24.5227 7.69071 20.6093 4.25203 -0.264637 4.59949 
431 1 95.94 22.7091 8.04589 22.4492 6.27247 -2.44207 -8.36119 
410 1 95.94 2.38197 10.2839 20.5913 -1.63815 3.94521 -7.17757 
1227 1 95.94 1.97107 12.2015 22.5798 12.345 -3.43494 -5.44529 
1225 1 95.94 0.0396727 12.2167 20.5915 -0.979741 -11.3246 -3.04089 
414 1 95.94 6.06999 10.1941 20.4547 7.52823 4.23615 2.56804 
413 1 95.94 4.13575 8.25971 20.6541 -0.965478 5.65983 5.97268 
486 1 95.94 6.37305 10.1835 24.3285 1.9918 -2.83083 -6.43798 
485 1 95.94 4.24887 8.28603 24.2792 6.7863 -1.47329 -3.18097 
420 1 95.94 8.07895 10.0187 22.223 -1.35058 7.31021 4.53251 
416 1 95.94 4.16476 10.3963 22.5636 -4.0252 0.762946 8.48995 
418 1 95.94 10.021 9.93693 20.4654 1.56822 4.75469 -3.21686 
424 1 95.94 11.8534 10.1248 22.3836 -2.84205 -4.33551 -9.28586 
1235 1 95.94 10.0004 12.161 22.3977 0.854547 -12.3604 -2.53858 
490 1 95.94 10.2153 10.4887 24.4261 -8.58871 -1.08747 1.8109 
1237 1 95.94 11.9098 12.2442 20.5422 6.12534 6.58899 2.45627 
422 1 95.94 14.39 10.2813 20.8575 1.7983 2.87836 -3.23873 
494 1 95.94 14.4569 10.4522 24.0505 -4.8103 0.48826 4.49436 
1313 1 95.94 16.3271 12.2106 24.4062 4.42228 1.46158 1.85557 
423 1 95.94 14.3214 8.3272 22.5396 0.579798 -5.83226 2.9802 
1309 1 95.94 12.4433 12.1693 24.0959 9.5102 4.50337 -1.05669 
428 1 95.94 16.409 10.0543 22.3366 13.1726 1.52789 -1.39755 
1243 1 95.94 18.3493 11.8908 22.4336 -1.19495 -6.07351 -2.66593 
4753 1 95.94 24.1307 12.1654 24.4346 -4.98626 1.39892 1.77432 
3868 1 95.94 24.4542 10.3531 22.4426 -1.90415 4.33298 -1.07414 
430 1 95.94 22.1197 10.0548 20.4516 3.66241 0.867781 -4.87099 
432 1 95.94 20.5187 10.2664 22.2207 -5.588 -3.06753 1.98965 
440 1 95.94 3.91907 2.18668 26.7958 7.49802 -7.47926 -0.946784 
434 1 95.94 2.12058 2.48475 24.6932 -4.67476 -4.46877 -2.84953 
435 1 95.94 2.15588 0.190522 26.5242 2.02848 1.40303 2.26609 
433 1 95.94 0.111203 0.0365244 24.6084 -2.16872 -1.66627 4.52812 
439 1 95.94 6.40852 0.152363 26.7915 0.821285 0.856422 1.05927 
537 1 95.94 7.90506 3.9577 28.6089 1.55314 -4.28645 1.57833 
463 1 95.94 6.12437 4.00724 26.6906 0.830345 1.70768 0.39135 
438 1 95.94 6.25279 2.04017 24.7635 4.55172 -1.04036 3.09285 
465 1 95.94 7.99706 3.90709 24.638 3.23912 7.3862 2.31641 
444 1 95.94 8.50379 2.34131 26.8479 2.22153 -1.14701 3.35842 
514 1 95.94 10.2138 1.84698 28.6085 5.67751 13.6159 9.74275 
467 1 95.94 10.1793 3.93172 26.6239 3.80041 1.53135 -0.299837 
443 1 95.94 10.0437 0.0779664 26.6542 -2.77202 2.50469 6.83498 
448 1 95.94 12.2707 1.84373 26.7256 -0.688155 -6.27379 2.26447 
471 1 95.94 13.8848 4.0743 26.5213 2.41295 2.20431 3.67572 
545 1 95.94 16.1106 3.85696 28.45 9.09604 0.13106 6.78674 
452 1 95.94 16.152 2.00824 26.5967 5.41251 3.22152 -4.07304 
449 1 95.94 16.2992 0.322734 24.5627 -4.11026 5.26918 -0.385019 
522 1 95.94 18.3453 2.33885 28.4971 2.6512 4.03264 0.740131 
521 1 95.94 16.6433 0.0891817 28.6238 5.75979 -1.69158 -3.62243 
450 1 95.94 18.3135 1.92047 25.2639 -8.40999 -4.01977 -2.52665 
456 1 95.94 20.4492 1.59342 26.5133 0.928994 4.53943 -4.29311 
479 1 95.94 22.7055 3.69973 26.3288 6.84174 -5.41284 7.72969 
477 1 95.94 20.617 3.75811 24.7536 -4.30246 12.6043 -2.97822 
3985 1 95.94 24.4811 3.96699 28.3667 -0.398463 3.59412 -3.91413 
454 1 95.94 22.6584 1.31291 24.5511 -5.17419 -1.77325 9.40462 
533 1 95.94 4.03291 4.12751 28.2046 0.72138 -4.04219 -4.69075 
459 1 95.94 1.79645 4.28739 26.6799 -5.10279 1.45091 -11.7246 
530 1 95.94 1.55841 6.24985 28.352 -8.69069 1.39123 -1.55145 
464 1 95.94 3.80553 6.15375 26.1591 -3.24857 -2.26094 5.01161 