ITEM: TIMESTEP
0
ITEM: NUMBER OF ATOMS
500
ITEM: BOX BOUNDS
0.000000 20.500000
0.000000 20.500000
0.000000 20.500000
ITEM: ATOMS id type x y z
1 1 0.000000 0.000000 0.000000
2 1 2.050000 0.000000 2.050000
3 1 0.000000 2.050000 2.050000
4 1 2.050000 2.050000 0.000000
5 1 0.000000 0.000000 4.100000
6 1 2.050000 0.000000 6.150000
7 1 0.000000 2.050000 6.150000
8 1 2.050000 2.050000 4.100000
9 1 0.000000 0.000000 8.200000
10 1 2.050000 0.000000 10.250000
11 1 0.000000 2.050000 10.250000
12 1 2.050000 2.050000 8.200000
13 1 0.000000 0.000000 12.300000
14 1 2.050000 0.000000 14.350000
15 1 0.000000 2.050000 14.350000
16 1 2.050000 2.050000 12.300000
17 1 0.000000 0.000000 16.400000
18 1 2.050000 0.000000 18.450000
19 1 0.000000 2.050000 18.450000
20 1 2.050000 2.050000 16.400000
21 1 0.000000 4.100000 0.000000
22 1 2.050000 4.100000 2.050000
23 1 0.000000 6.150000 2.050000
24 1 2.050000 6.150000 0.000000
25 1 0.000000 4.100000 4.100000
26 1 2.050000 4.100000 6.150000
27 1 0.000000 6.150000 6.150000
28 1 2.050000 6.150000 4.100000
29 1 0.000000 4.100000 8.200000
30 1 2.050000 4.100000 10.250000
31 1 0.000000 6.150000 10.250000
32 1 2.050000 6.150000 8.200000
33 1 0.000000 4.100000 12.300000
34 1 2.050000 4.100000 14.350000
35 1 0.000000 6.150000 14.350000
36 1 2.050000 6.150000 12.300000
37 1 0.000000 4.100000 16.400000
38 1 2.050000 4.100000 18.450000
39 1 0.000000 6.150000 18.450000
40 1 2.050000 6.150000 16.400000
41 1 0.000000 8.200000 0.000000
42 1 2.050000 8.200000 2.050000
43 1 0.000000 10.250000 2.050000
44 1 2.050000 10.250000 0.000000
45 1 0.000000 8.200000 4.100000
46 1 2.050000 8.200000 6.150000
47 1 0.000000 10.250000 6.150000
48 1 2.050000 10.250000 4.100000
49 1 0.000000 8.200000 8.200000
50 1 2.050000 8.200000 10.250000
51 1 0.000000 10.250000 10.250000
52 1 2.050000 10.250000 8.200000
53 1 0.000000 8.200000 12.300000
54 1 2.050000 8.200000 14.350000
55 1 0.000000 10.250000 14.350000
56 1 2.050000 10.250000 12.300000
57 1 0.000000 8.200000 16.400000
58 1 2.050000 8.200000 18.450000
59 1 0.000000 10.250000 18.450000
60 1 2.050000 10.250000 16.400000
61 1 0.000000 12.300000 0.000000
62 1 2.050000 12.300000 2.050000
63 1 0.000000 14.350000 2.050000
64 1 2.050000 14.350000 0.000000
65 1 0.000000 12.300000 4.100000
66 1 2.050000 12.300000 6.150000
67 1 0.000000 14.350000 6.150000
68 1 2.050000 14.350000 4.100000
69 1 0.000000 12.300000 8.200000
70 1 2.050000 12.300000 10.250000
71 1 0.000000 14.350000 10.250000
72 1 2.050000 14.350000 8.200000
73 1 0.000000 12.300000 12.300000
74 1 2.050000 12.300000 14.350000
75 1 0.000000 14.350000 14.350000
76 1 2.050000 14.350000 12.300000
77 1 0.000000 12.300000 16.400000
78 1 2.050000 12.300000 18.450000
79 1 0.000000 14.350000 18.450000
80 1 2.050000 14.350000 16.400000
81 1 0.000000 16.400000 0.000000
82 1 2.050000 16.400000 2.050000
83 1 0.000000 18.450000 2.050000
84 1 2.050000 18.450000 0.000000
85 1 0.000000 16.400000 4.100000
86 1 2.050000 16.400000 6.150000
87 1 0.000000 18.450000 6.150000
88 1 2.050000 18.450000 4.100000
89 1 0.000000 16.400000 8.200000
90 1 2.050000 16.400000 10.250000
91 1 0.000000 18.450000 10.250000
92 1 2.050000 18.450000 8.200000
93 1 0.000000 16.400000 12.300000
94 1 2.050000 16.400000 14.350000
95 1 0.000000 18.450000 14.350000
96 1 2.050000 18.450000 12.300000
97 1 0.000000 16.400000 16.400000
98 1 2.050000 16.400000 18.450000
99 1 0.000000 18.450000 18.450000
100 1 2.050000 18.450000 16.400000
101 1 4.100000 0.000000 0.000000
102 1 6.150000 0.000000 2.050000
103 1 4.100000 2.050000 2.050000
104 1 6.150000 2.050000 0.000000
105 1 4.100000 0.000000 4.100000
106 1 6.150000 0.000000 6.150000
107 1 4.100000 2.050000 6.150000
108 1 6.150000 2.050000 4.100000
109 1 4.100000 0.000000 8.200000
110 1 6.150000 0.000000 10.250000
111 1 4.100000 2.050000 10.250000
112 1 6.150000 2.050000 8.200000
113 1 4.100000 0.000000 12.300000
114 1 6.150000 0.000000 14.350000
115 1 4.100000 2.050000 14.350000
116 1 6.150000 2.050000 12.300000
117 1 4.100000 0.000000 16.400000
118 1 6.150000 0.000000 18.450000
119 1 4.100000 2.050000 18.450000
120 1 6.150000 2.050000 16.400000
121 1 4.100000 4.100000 0.000000
122 1 6.150000 4.100000 2.050000
123 1 4.100000 6.150000 2.050000
124 1 6.150000 6.150000 0.000000
125 1 4.100000 4.100000 4.100000
126 1 6.150000 4.100000 6.150000
127 1 4.100000 6.150000 6.150000
128 1 6.150000 6.150000 4.100000
129 1 4.100000 4.100000 8.200000
130 1 6.150000 4.100000 10.250000
131 1 4.100000 6.150000 10.250000
132 1 6.150000 6.150000 8.200000
133 1 4.100000 4.100000 12.300000
134 1 6.150000 4.100000 14.350000
135 1 4.100000 6.150000 14.350000
136 1 6.150000 6.150000 12.300000
137 1 4.100000 4.100000 16.400000
138 1 6.150000 4.100000 18.450000
139 1 4.100000 6.150000 18.450000
140 1 6.150000 6.150000 16.400000
141 1 4.100000 8.200000 0.000000
142 1 6.150000 8.200000 2.050000
143 1 4.100000 10.250000 2.050000
144 1 6.150000 10.250000 0.000000
145 1 4.100000 8.200000 4.100000
146 1 6.150000 8.200000 6.150000
147 1 4.100000 10.250000 6.150000
148 1 6.150000 10.250000 4.100000
149 1 4.100000 8.200000 8.200000
150 1 6.150000 8.200000 10.250000
151 1 4.100000 10.250000 10.250000
152 1 6.150000 10.250000 8.200000
153 1 4.100000 8.200000 12.300000
154 1 6.150000 8.200000 14.350000
155 1 4.100000 10.250000 14.350000
156 1 6.150000 10.250000 12.300000
157 1 4.100000 8.200000 16.400000
158 1 6.150000 8.200000 18.450000
159 1 4.100000 10.250000 18.450000
160 1 6.150000 10.250000 16.400000
161 1 4.100000 12.300000 0.000000
162 1 6.150000 12.300000 2.050000
163 1 4.100000 14.350000 2.050000
164 1 6.150000 14.350000 0.000000
165 1 4.100000 12.300000 4.100000
166 1 6.150000 12.300000 6.150000
167 1 4.100000 14.350000 6.150000
168 1 6.150000 14.350000 4.100000
169 1 4.100000 12.300000 8.200000
170 1 6.150000 12.300000 10.250000
171 1 4.100000 14.350000 10.250000
172 1 6.150000 14.350000 8.200000
173 1 4.100000 12.300000 12.300000
174 1 6.150000 12.300000 14.350000
175 1 4.100000 14.350000 14.350000
176 1 6.150000 14.350000 12.300000
177 1 4.100000 12.300000 16.400000
178 1 6.150000 12.300000 18.450000
179 1 4.100000 14.350000 18.450000
180 1 6.150000 14.350000 16.400000
181 1 4.100000 16.400000 0.000000
182 1 6.150000 16.400000 2.050000
183 1 4.100000 18.450000 2.050000
184 1 6.150000 18.450000 0.000000
185 1 4.100000 16.400000 4.100000
186 1 6.150000 16.400000 6.150000
187 1 4.100000 18.450000 6.150000
188 1 6.150000 18.450000 4.100000
189 1 4.100000 16.400000 8.200000
190 1 6.150000 16.400000 10.250000
191 1 4.100000 18.450000 10.250000
192 1 6.150000 18.450000 8.200000
193 1 4.100000 16.400000 12.300000
194 1 6.150000 16.400000 14.350000
195 1 4.100000 18.450000 14.350000
196 1 6.150000 18.450000 12.300000
197 1 4.100000 16.400000 16.400000
198 1 6.150000 16.400000 18.450000
199 1 4.100000 18.450000 18.450000
200 1 6.150000 18.450000 16.400000
201 1 8.200000 0.000000 0.000000
202 1 10.250000 0.000000 2.050000
203 1 8.200000 2.050000 2.050000
204 1 10.250000 2.050000 0.000000
205 1 8.200000 0.000000 4.100000
206 1 10.250000 0.000000 6.150000
207 1 8.200000 2.050000 6.150000
208 1 10.250000 2.050000 4.100000
209 1 8.200000 0.000000 8.200000
210 1 10.250000 0.000000 10.250000
211 1 8.200000 2.050000 10.250000
212 1 10.250000 2.050000 8.200000
213 1 8.200000 0.000000 12.300000
214 1 10.250000 0.000000 14.350000
215 1 8.200000 2.050000 14.350000
216 1 10.250000 2.050000 12.300000
217 1 8.200000 0.000000 16.400000
218 1 10.250000 0.000000 18.450000
219 1 8.200000 2.050000 18.450000
220 1 10.250000 2.050000 16.400000
221 1 8.200000 4.100000 0.000000
222 1 10.250000 4.100000 2.050000
223 1 8.200000 6.150000 2.050000
224 1 10.250000 6.150000 0.000000
225 1 8.200000 4.100000 4.100000
226 1 10.250000 4.100000 6.150000
227 1 8.200000 6.150000 6.150000
228 1 10.250000 6.150000 4.100000
229 1 8.200000 4.100000 8.200000
230 1 10.250000 4.100000 10.250000
231 1 8.200000 6.150000 10.250000
232 1 10.250000 6.150000 8.200000
233 1 8.200000 4.100000 12.300000
234 1 10.250000 4.100000 14.350000
235 1 8.200000 6.150000 14.350000
236 1 10.250000 6.150000 12.300000
237 1 8.200000 4.100000 16.400000
238 1 10.250000 4.100000 18.450000
239 1 8.200000 6.150000 18.450000
240 1 10.250000 6.150000 16.400000
241 1 8.200000 8.200000 0.000000
242 1 10.250000 8.200000 2.050000
243 1 8.200000 10.250000 2.050000
244 1 10.250000 10.250000 0.000000
245 1 8.200000 8.200000 4.100000
246 1 10.250000 8.200000 6.150000
247 1 8.200000 10.250000 6.150000
248 1 10.250000 10.250000 4.100000
249 1 8.200000 8.200000 8.200000
250 1 10.250000 8.200000 10.250000
251 1 8.200000 10.250000 10.250000
252 1 10.250000 10.250000 8.200000
253 1 8.200000 8.200000 12.300000
254 1 10.250000 8.200000 14.350000
255 1 8.200000 10.250000 14.350000
256 1 10.250000 10.250000 12.300000
257 1 8.200000 8.200000 16.400000
258 1 10.250000 8.200000 18.450000
259 1 8.200000 10.250000 18.450000
260 1 10.250000 10.250000 16.400000
261 1 8.200000 12.300000 0.000000
262 1 10.250000 12.300000 2.050000
263 1 8.200000 14.350000 2.050000
264 1 10.250000 14.350000 0.000000
265 1 8.200000 12.300000 4.100000
266 1 10.250000 12.300000 6.150000
267 1 8.200000 14.350000 6.150000
268 1 10.250000 14.350000 4.100000
269 1 8.200000 12.300000 8.200000
270 1 10.250000 12.300000 10.250000
271 1 8.200000 14.350000 10.250000
272 1 10.250000 14.350000 8.200000
273 1 8.200000 12.300000 12.300000
274 1 10.250000 12.300000 14.350000
275 1 8.200000 14.350000 14.350000
276 1 10.250000 14.350000 12.300000
277 1 8.200000 12.300000 16.400000
278 1 10.250000 12.300000 18.450000
279 1 8.200000 14.350000 18.450000
280 1 10.250000 14.350000 16.400000
281 1 8.200000 16.400000 0.000000
282 1 10.250000 16.400000 2.050000
283 1 8.200000 18.450000 2.050000
284 1 10.250000 18.450000 0.000000
285 1 8.200000 16.400000 4.100000
286 1 10.250000 16.400000 6.150000
287 1 8.200000 18.450000 6.150000
288 1 10.250000 18.450000 4.100000
289 1 8.200000 16.400000 8.200000
290 1 10.250000 16.400000 10.250000
291 1 8.200000 18.450000 10.250000
292 1 10.250000 18.450000 8.200000
293 1 8.200000 16.400000 12.300000
294 1 10.250000 16.400000 14.350000
295 1 8.200000 18.450000 14.350000
296 1 10.250000 18.450000 12.300000
297 1 8.200000 16.400000 16.400000
298 1 10.250000 16.400000 18.450000
299 1 8.200000 18.450000 18.450000
300 1 10.250000 18.450000 16.400000
301 1 12.300000 0.000000 0.000000
302 1 14.350000 0.000000 2.050000
303 1 12.300000 2.050000 2.050000
304 1 14.350000 2.050000 0.000000
305 1 12.300000 0.000000 4.100000
306 1 14.350000 0.000000 6.150000
307 1 12.300000 2.050000 6.150000
308 1 14.350000 2.050000 4.100000
309 1 12.300000 0.000000 8.200000
310 1 14.350000 0.000000 10.250000
311 1 12.300000 2.050000 10.250000
312 1 14.350000 2.050000 8.200000
313 1 12.300000 0.000000 12.300000
314 1 14.350000 0.000000 14.350000
315 1 12.300000 2.050000 14.350000
316 1 14.350000 2.050000 12.300000
317 1 12.300000 0.000000 16.400000
318 1 14.350000 0.000000 18.450000
319 1 12.300000 2.050000 18.450000
320 1 14.350000 2.050000 16.400000
321 1 12.300000 4.100000 0.000000
322 1 14.350000 4.100000 2.050000
323 1 12.300000 6.150000 2.050000
324 1 14.350000 6.150000 0.000000
325 1 12.300000 4.100000 4.100000
326 1 14.350000 4.100000 6.150000
327 1 12.300000 6.150000 6.150000
328 1 14.350000 6.150000 4.100000
329 1 12.300000 4.100000 8.200000
330 1 14.350000 4.100000 10.250000
331 1 12.300000 6.150000 10.250000
332 1 14.350000 6.150000 8.200000
333 1 12.300000 4.100000 12.300000
334 1 14.350000 4.100000 14.350000
335 1 12.300000 6.150000 14.350000
336 1 14.350000 6.150000 12.300000
337 1 12.300000 4.100000 16.400000
338 1 14.350000 4.100000 18.450000
339 1 12.300000 6.150000 18.450000
340 1 14.350000 6.150000 16.400000
341 1 12.300000 8.200000 0.000000
342 1 14.350000 8.200000 2.050000
343 1 12.300000 10.250000 2.050000
344 1 14.350000 10.250000 0.000000
345 1 12.300000 8.200000 4.100000
346 1 14.350000 8.200000 6.150000
347 1 12.300000 10.250000 6.150000
348 1 14.350000 10.250000 4.100000
349 1 12.300000 8.200000 8.200000
350 1 14.350000 8.200000 10.250000
351 1 12.300000 10.250000 10.250000
352 1 14.350000 10.250000 8.200000
353 1 12.300000 8.200000 12.300000
354 1 14.350000 8.200000 14.350000
355 1 12.300000 10.250000 14.350000
356 1 14.350000 10.250000 12.300000
357 1 12.300000 8.200000 16.400000
358 1 14.350000 8.200000 18.450000
359 1 12.300000 10.250000 18.450000
360 1 14.350000 10.250000 16.400000
361 1 12.300000 12.300000 0.000000
362 1 14.350000 12.300000 2.050000
363 1 12.300000 14.350000 2.050000
364 1 14.350000 14.350000 0.000000
365 1 12.300000 12.300000 4.100000
366 1 14.350000 12.300000 6.150000
367 1 12.300000 14.350000 6.150000
368 1 14.350000 14.350000 4.100000
369 1 12.300000 12.300000 8.200000
370 1 14.350000 12.300000 10.250000
371 1 12.300000 14.350000 10.250000
372 1 14.350000 14.350000 8.200000
373 1 12.300000 12.300000 12.300000
374 1 14.350000 12.300000 14.350000
375 1 12.300000 14.350000 14.350000
376 1 14.350000 14.350000 12.300000
377 1 12.300000 12.300000 16.400000
378 1 14.350000 12.300000 18.450000
379 1 12.300000 14.350000 18.450000
380 1 14.350000 14.350000 16.400000
381 1 12.300000 16.400000 0.000000
382 1 14.350000 16.400000 2.050000
383 1 12.300000 18.450000 2.050000
384 1 14.350000 18.450000 0.000000
385 1 12.300000 16.400000 4.100000
386 1 14.350000 16.400000 6.150000
387 1 12.300000 18.450000 6.150000
388 1 14.350000 18.450000 4.100000
389 1 12.300000 16.400000 8.200000
390 1 14.350000 16.400000 10.250000
391 1 12.300000 18.450000 10.250000
392 1 14.350000 18.450000 8.200000
393 1 12.300000 16.400000 12.300000
394 1 14.350000 16.400000 14.350000
395 1 12.300000 18.450000 14.350000
396 1 14.350000 18.450000 12.300000
397 1 12.300000 16.400000 16.400000
398 1 14.350000 16.400000 18.450000
399 1 12.300000 18.450000 18.450000
400 1 14.350000 18.450000 16.400000
401 1 16.400000 0.000000 0.000000
402 1 18.450000 0.000000 2.050000
403 1 16.400000 2.050000 2.050000
404 1 18.450000 2.050000 0.000000
405 1 16.400000 0.000000 4.100000
406 1 18.450000 0.000000 6.150000
407 1 16.400000 2.050000 6.150000
408 1 18.450000 2.050000 4.100000
409 1 16.400000 0.000000 8.200000
410 1 18.450000 0.000000 10.250000
411 1 16.400000 2.050000 10.250000
412 1 18.450000 2.050000 8.200000
413 1 16.400000 0.000000 12.300000
414 1 18.450000 0.000000 14.350000
415 1 16.400000 2.050000 14.350000
416 1 18.450000 2.050000 12.300000
417 1 16.400000 0.000000 16.400000
418 1 18.450000 0.000000 18.450000
419 1 16.400000 2.050000 18.450000
420 1 18.450000 2.050000 16.400000
421 1 16.400000 4.100000 0.000000
422 1 18.450000 4.100000 2.050000
423 1 16.400000 6.150000 2.050000
424 1 18.450000 6.150000 0.000000
425 1 16.400000 4.100000 4.100000
426 1 18.450000 4.100000 6.150000
427 1 16.400000 6.150000 6.150000
428 1 18.450000 6.150000 4.100000
429 1 16.400000 4.100000 8.200000
430 1 18.450000 4.100000 10.250000
431 1 16.400000 6.150000 10.250000
432 1 18.450000 6.150000 8.200000
433 1 16.400000 4.100000 12.300000
434 1 18.450000 4.100000 14.350000
435 1 16.400000 6.150000 14.350000
436 1 18.450000 6.150000 12.300000
437 1 16.400000 4.100000 16.400000
438 1 18.450000 4.100000 18.450000
439 1 16.400000 6.150000 18.450000
440 1 18.450000 6.150000 16.400000
441 1 16.400000 8.200000 0.000000
442 1 18.450000 8.200000 2.050000
443 1 16.400000 10.250000 2.050000
444 1 18.450000 10.250000 0.000000
445 1 16.400000 8.200000 4.100000
446 1 18.450000 8.200000 6.150000
447 1 16.400000 10.250000 6.150000
448 1 18.450000 10.250000 4.100000
449 1 16.400000 8.200000 8.200000
450 1 18.450000 8.200000 10.250000
451 1 16.400000 10.250000 10.250000
452 1 18.450000 10.250000 8.200000
453 1 16.400000 8.200000 12.300000
454 1 18.450000 8.200000 14.350000
455 1 16.400000 10.250000 14.350000
456 1 18.450000 10.250000 12.300000
457 1 16.400000 8.200000 16.400000
458 1 18.450000 8.200000 18.450000
459 1 16.400000 10.250000 18.450000
460 1 18.450000 10.250000 16.400000
461 1 16.400000 12.300000 0.000000
462 1 18.450000 12.300000 2.050000
463 1 16.400000 14.350000 2.050000
464 1 18.450000 14.350000 0.000000
465 1 16.400000 12.300000 4.100000
466 1 18.450000 12.300000 6.150000
467 1 16.400000 14.350000 6.150000
468 1 18.450000 14.350000 4.100000
469 1 16.400000 12.300000 8.200000
470 1 18.450000 12.300000 10.250000
471 1 16.400000 14.350000 10.250000
472 1 18.450000 14.350000 8.200000
473 1 16.400000 12.300000 12.300000
474 1 18.450000 12.300000 14.350000
475 1 16.400000 14.350000 14.350000
476 1 18.450000 14.350000 12.300000
477 1 16.400000 12.300000 16.400000
478 1 18.450000 12.300000 18.450000
479 1 16.400000 14.350000 18.450000
480 1 18.450000 14.350000 16.400000
481 1 16.400000 16.400000 0.000000
482 1 18.450000 16.400000 2.050000
483 1 16.400000 18.450000 2.050000
484 1 18.450000 18.450000 0.000000
485 1 16.400000 16.400000 4.100000
486 1 18.450000 16.400000 6.150000
487 1 16.400000 18.450000 6.150000
488 1 18.450000 18.450000 4.100000
489 1 16.400000 16.400000 8.200000
490 1 18.450000 16.400000 10.250000
491 1 16.400000 18.450000 10.250000
492 1 18.450000 18.450000 8.200000
493 1 16.400000 16.400000 12.300000
494 1 18.450000 16.400000 14.350000
495 1 16.400000 18.450000 14.350000
496 1 18.450000 18.450000 12.300000
497 1 16.400000 16.400000 16.400000
498 1 18.450000 16.400000 18.450000
499 1 16.400000 18.450000 18.450000
500 1 18.450000 18.450000 16.400000
