ITEM: TIMESTEP
0
ITEM: NUMBER OF ATOMS
250
ITEM: BOX BOUNDS
0.000000 16.000000
0.000000 16.000000
0.000000 16.000000
ITEM: ATOMS id type x y z
1 1 0.000000 0.000000 0.000000
2 1 1.600000 1.600000 1.600000
3 1 0.000000 0.000000 3.200000
4 1 1.600000 1.600000 4.800000
5 1 0.000000 0.000000 6.400000
6 1 1.600000 1.600000 8.000000
7 1 0.000000 0.000000 9.600000
8 1 1.600000 1.600000 11.200000
9 1 0.000000 0.000000 12.800000
10 1 1.600000 1.600000 14.400000
11 1 0.000000 3.200000 0.000000
12 1 1.600000 4.800000 1.600000
13 1 0.000000 3.200000 3.200000
14 1 1.600000 4.800000 4.800000
15 1 0.000000 3.200000 6.400000
16 1 1.600000 4.800000 8.000000
17 1 0.000000 3.200000 9.600000
18 1 1.600000 4.800000 11.200000
19 1 0.000000 3.200000 12.800000
20 1 1.600000 4.800000 14.400000
21 1 0.000000 6.400000 0.000000
22 1 1.600000 8.000000 1.600000
23 1 0.000000 6.400000 3.200000
24 1 1.600000 8.000000 4.800000
25 1 0.000000 6.400000 6.400000
26 1 1.600000 8.000000 8.000000
27 1 0.000000 6.400000 9.600000
28 1 1.600000 8.000000 11.200000
29 1 0.000000 6.400000 12.800000
30 1 1.600000 8.000000 14.400000
31 1 0.000000 9.600000 0.000000
32 1 1.600000 11.200000 1.600000
33 1 0.000000 9.600000 3.200000
34 1 1.600000 11.200000 4.800000
35 1 0.000000 9.600000 6.400000
36 1 1.600000 11.200000 8.000000
37 1 0.000000 9.600000 9.600000
38 1 1.600000 11.200000 11.200000
39 1 0.000000 9.600000 12.800000
40 1 1.600000 11.200000 14.400000
41 1 0.000000 12.800000 0.000000
42 1 1.600000 14.400000 1.600000
43 1 0.000000 12.800000 3.200000
44 1 1.600000 14.400000 4.800000
45 1 0.000000 12.800000 6.400000
46 1 1.600000 14.400000 8.000000
47 1 0.000000 12.800000 9.600000
48 1 1.600000 14.400000 11.200000
49 1 0.000000 12.800000 12.800000
50 1 1.600000 14.400000 14.400000
51 1 3.200000 0.000000 0.000000
52 1 4.800000 1.600000 1.600000
53 1 3.200000 0.000000 3.200000
54 1 4.800000 1.600000 4.800000
55 1 3.200000 0.000000 6.400000
56 1 4.800000 1.600000 8.000000
57 1 3.200000 0.000000 9.600000
58 1 4.800000 1.600000 11.200000
59 1 3.200000 0.000000 12.800000
60 1 4.800000 1.600000 14.400000
61 1 3.200000 3.200000 0.000000
62 1 4.800000 4.800000 1.600000
63 1 3.200000 3.200000 3.200000
64 1 4.800000 4.800000 4.800000
65 1 3.200000 3.200000 6.400000
66 1 4.800000 4.800000 8.000000
67 1 3.200000 3.200000 9.600000
68 1 4.800000 4.800000 11.200000
69 1 3.200000 3.200000 12.800000
70 1 4.800000 4.800000 14.400000
71 1 3.200000 6.400000 0.000000
72 1 4.800000 8.000000 1.600000
73 1 3.200000 6.400000 3.200000
74 1 4.800000 8.000000 4.800000
75 1 3.200000 6.400000 6.400000
76 1 4.800000 8.000000 8.000000
77 1 3.200000 6.400000 9.600000
78 1 4.800000 8.000000 11.200000
79 1 3.200000 6.400000 12.800000
80 1 4.800000 8.000000 14.400000
81 1 3.200000 9.600000 0.000000
82 1 4.800000 11.200000 1.600000
83 1 3.200000 9.600000 3.200000
84 1 4.800000 11.200000 4.800000
85 1 3.200000 9.600000 6.400000
86 1 4.800000 11.200000 8.000000
87 1 3.200000 9.600000 9.600000
88 1 4.800000 11.200000 11.200000
89 1 3.200000 9.600000 12.800000
90 1 4.800000 11.200000 14.400000
91 1 3.200000 12.800000 0.000000
92 1 4.800000 14.400000 1.600000
93 1 3.200000 12.800000 3.200000
94 1 4.800000 14.400000 4.800000
95 1 3.200000 12.800000 6.400000
96 1 4.800000 14.400000 8.000000
97 1 3.200000 12.800000 9.600000
98 1 4.800000 14.400000 11.200000
99 1 3.200000 12.800000 12.800000
100 1 4.800000 14.400000 14.400000
101 1 6.400000 0.000000 0.000000
102 1 8.000000 1.600000 1.600000
103 1 6.400000 0.000000 3.200000
104 1 8.000000 1.600000 4.800000
105 1 6.400000 0.000000 6.400000
106 1 8.000000 1.600000 8.000000
107 1 6.400000 0.000000 9.600000
108 1 8.000000 1.600000 11.200000
109 1 6.400000 0.000000 12.800000
110 1 8.000000 1.600000 14.400000
111 1 6.400000 3.200000 0.000000
112 1 8.000000 4.800000 1.600000
113 1 6.400000 3.200000 3.200000
114 1 8.000000 4.800000 4.800000
115 1 6.400000 3.200000 6.400000
116 1 8.000000 4.800000 8.000000
117 1 6.400000 3.200000 9.600000
118 1 8.000000 4.800000 11.200000
119 1 6.400000 3.200000 12.800000
120 1 8.000000 4.800000 14.400000
121 1 6.400000 6.400000 0.000000
122 1 8.000000 8.000000 1.600000
123 1 6.400000 6.400000 3.200000
124 1 8.000000 8.000000 4.800000
125 1 6.400000 6.400000 6.400000
126 1 8.000000 8.000000 8.000000
127 1 6.400000 6.400000 9.600000
128 1 8.000000 8.000000 11.200000
129 1 6.400000 6.400000 12.800000
130 1 8.000000 8.000000 14.400000
131 1 6.400000 9.600000 0.000000
132 1 8.000000 11.200000 1.600000
133 1 6.400000 9.600000 3.200000
134 1 8.000000 11.200000 4.800000
135 1 6.400000 9.600000 6.400000
136 1 8.000000 11.200000 8.000000
137 1 6.400000 9.600000 9.600000
138 1 8.000000 11.200000 11.200000
139 1 6.400000 9.600000 12.800000
140 1 8.000000 11.200000 14.400000
141 1 6.400000 12.800000 0.000000
142 1 8.000000 14.400000 1.600000
143 1 6.400000 12.800000 3.200000
144 1 8.000000 14.400000 4.800000
145 1 6.400000 12.800000 6.400000
146 1 8.000000 14.400000 8.000000
147 1 6.400000 12.800000 9.600000
148 1 8.000000 14.400000 11.200000
149 1 6.400000 12.800000 12.800000
150 1 8.000000 14.400000 14.400000
151 1 9.600000 0.000000 0.000000
152 1 11.200000 1.600000 1.600000
153 1 9.600000 0.000000 3.200000
154 1 11.200000 1.600000 4.800000
155 1 9.600000 0.000000 6.400000
156 1 11.200000 1.600000 8.000000
157 1 9.600000 0.000000 9.600000
158 1 11.200000 1.600000 11.200000
159 1 9.600000 0.000000 12.800000
160 1 11.200000 1.600000 14.400000
161 1 9.600000 3.200000 0.000000
162 1 11.200000 4.800000 1.600000
163 1 9.600000 3.200000 3.200000
164 1 11.200000 4.800000 4.800000
165 1 9.600000 3.200000 6.400000
166 1 11.200000 4.800000 8.000000
167 1 9.600000 3.200000 9.600000
168 1 11.200000 4.800000 11.200000
169 1 9.600000 3.200000 12.800000
170 1 11.200000 4.800000 14.400000
171 1 9.600000 6.400000 0.000000
172 1 11.200000 8.000000 1.600000
173 1 9.600000 6.400000 3.200000
174 1 11.200000 8.000000 4.800000
175 1 9.600000 6.400000 6.400000
176 1 11.200000 8.000000 8.000000
177 1 9.600000 6.400000 9.600000
178 1 11.200000 8.000000 11.200000
179 1 9.600000 6.400000 12.800000
180 1 11.200000 8.000000 14.400000
181 1 9.600000 9.600000 0.000000
182 1 11.200000 11.200000 1.600000
183 1 9.600000 9.600000 3.200000
184 1 11.200000 11.200000 4.800000
185 1 9.600000 9.600000 6.400000
186 1 11.200000 11.200000 8.000000
187 1 9.600000 9.600000 9.600000
188 1 11.200000 11.200000 11.200000
189 1 9.600000 9.600000 12.800000
190 1 11.200000 11.200000 14.400000
191 1 9.600000 12.800000 0.000000
192 1 11.200000 14.400000 1.600000
193 1 9.600000 12.800000 3.200000
194 1 11.200000 14.400000 4.800000
195 1 9.600000 12.800000 6.400000
196 1 11.200000 14.400000 8.000000
197 1 9.600000 12.800000 9.600000
198 1 11.200000 14.400000 11.200000
199 1 9.600000 12.800000 12.800000
200 1 11.200000 14.400000 14.400000
201 1 12.800000 0.000000 0.000000
202 1 14.400000 1.600000 1.600000
203 1 12.800000 0.000000 3.200000
204 1 14.400000 1.600000 4.800000
205 1 12.800000 0.000000 6.400000
206 1 14.400000 1.600000 8.000000
207 1 12.800000 0.000000 9.600000
208 1 14.400000 1.600000 11.200000
209 1 12.800000 0.000000 12.800000
210 1 14.400000 1.600000 14.400000
211 1 12.800000 3.200000 0.000000
212 1 14.400000 4.800000 1.600000
213 1 12.800000 3.200000 3.200000
214 1 14.400000 4.800000 4.800000
215 1 12.800000 3.200000 6.400000
216 1 14.400000 4.800000 8.000000
217 1 12.800000 3.200000 9.600000
218 1 14.400000 4.800000 11.200000
219 1 12.800000 3.200000 12.800000
220 1 14.400000 4.800000 14.400000
221 1 12.800000 6.400000 0.000000
222 1 14.400000 8.000000 1.600000
223 1 12.800000 6.400000 3.200000
224 1 14.400000 8.000000 4.800000
225 1 12.800000 6.400000 6.400000
226 1 14.400000 8.000000 8.000000
227 1 12.800000 6.400000 9.600000
228 1 14.400000 8.000000 11.200000
229 1 12.800000 6.400000 12.800000
230 1 14.400000 8.000000 14.400000
231 1 12.800000 9.600000 0.000000
232 1 14.400000 11.200000 1.600000
233 1 12.800000 9.600000 3.200000
234 1 14.400000 11.200000 4.800000
235 1 12.800000 9.600000 6.400000
236 1 14.400000 11.200000 8.000000
237 1 12.800000 9.600000 9.600000
238 1 14.400000 11.200000 11.200000
239 1 12.800000 9.600000 12.800000
240 1 14.400000 11.200000 14.400000
241 1 12.800000 12.800000 0.000000
242 1 14.400000 14.400000 1.600000
243 1 12.800000 12.800000 3.200000
244 1 14.400000 14.400000 4.800000
245 1 12.800000 12.800000 6.400000
246 1 14.400000 14.400000 8.000000
247 1 12.800000 12.800000 9.600000
248 1 14.400000 14.400000 11.200000
249 1 12.800000 12.800000 12.800000
250 1 14.400000 14.400000 14.400000
