ITEM: TIMESTEP
5000
ITEM: NUMBER OF ATOMS
1008
ITEM: BOX BOUNDS pp pp pp
2.1881575742161985e-02 2.0234452424257874e+01
3.2485715087076983e-02 3.0040371138985840e+01
3.0946436894165430e-02 2.8322014911328971e+01
ITEM: ATOMS id type mass x y z vx vy vz 
8 1 95.94 2.53686 1.42392 2.34776 1.97538 4.8774 -4.99 
2 1 95.94 1.39037 2.59877 27.9933 4.11729 2.8193 4.63933 
4 1 95.94 20.0557 1.85064 2.09211 1.48301 9.7646 -1.77615 
12 1 95.94 5.84473 1.28859 2.1177 2.95336 -7.36121 0.589721 
6 1 95.94 4.13843 2.61257 0.0445086 -0.926394 -0.964775 3.61765 
16 1 95.94 8.40702 2.04604 3.05273 -1.76214 5.74989 -5.40727 
20 1 95.94 11.4114 1.64764 2.19337 -1.62681 0.0266753 5.04437 
14 1 95.94 10.012 2.51654 28.0807 3.02873 1.13922 -0.0273081 
24 1 95.94 14.5115 1.45305 2.59423 6.12586 1.99893 -1.89184 
28 1 95.94 16.8987 1.82471 2.41133 1.29526 0.640454 0.838992 
25 1 95.94 17.338 0.0924269 0.546272 -7.42718 2.75119 10.7324 
26 1 95.94 18.627 2.56881 28.1491 -0.024304 -1.86955 2.83751 
3 1 95.94 1.27341 4.11835 2.03793 -0.257764 3.07352 -1.83298 
36 1 95.94 2.76635 6.43416 2.28384 -7.93603 0.106053 -0.296471 
32 1 95.94 20.0409 6.76181 2.14193 3.51426 -1.64159 2.49215 
33 1 95.94 2.57743 5.07056 28.0943 -2.95836 -11.4911 4.83964 
30 1 95.94 1.36414 7.50467 28.0864 7.05349 -1.49588 1.45319 
7 1 95.94 4.16234 3.87828 2.30087 -1.69273 -3.91877 2.92811 
11 1 95.94 6.873 4.37058 2.15035 2.50225 -6.09303 3.96643 
40 1 95.94 5.7656 6.66312 2.3514 3.32056 2.76657 -2.97228 
37 1 95.94 5.35853 5.02126 28.2017 -0.725178 0.977141 3.61835 
15 1 95.94 10.158 4.07514 2.18391 4.0647 -4.92495 5.14912 
44 1 95.94 8.76586 6.31211 2.56732 4.2575 -3.95847 -8.14181 
48 1 95.94 11.6048 6.60993 2.1399 -1.7105 4.81802 -4.12325 
19 1 95.94 13.0636 4.26855 2.36736 -5.62384 -8.58772 -2.0534 
52 1 95.94 14.4016 6.72207 2.32326 -1.93219 1.53721 -4.6102 
23 1 95.94 15.6871 4.31216 2.35805 0.365518 -0.178731 1.13564 
46 1 95.94 12.9773 7.66178 28.2725 1.15776 -1.3517 -0.555059 
27 1 95.94 18.4277 4.01788 2.50432 -5.55549 9.35683 -0.998741 
56 1 95.94 17.3141 7.01171 2.65454 -0.57655 3.31143 0.977988 
31 1 95.94 1.31899 8.72516 2.11043 -5.90391 4.25271 -7.36198 
57 1 95.94 0.227722 10.3609 0.0564449 -2.18563 -1.65436 3.45115 
35 1 95.94 4.48101 9.25518 2.38405 0.736696 7.94635 3.61757 
39 1 95.94 7.52059 9.15937 2.90184 -7.80442 8.26976 4.04582 
65 1 95.94 6.15899 9.80273 0.186844 8.8369 -0.700121 -3.36306 
43 1 95.94 10.2108 9.13226 2.47143 4.41113 -4.67646 1.53628 
47 1 95.94 13.0806 9.27863 2.1558 2.2802 -1.00873 -1.9135 
51 1 95.94 15.9405 9.33028 2.01982 3.56226 7.23489 2.59577 
55 1 95.94 19.0262 9.26219 2.48478 -2.58859 -11.5009 -1.165 
81 1 95.94 17.5144 10.0574 0.243218 0.641994 -10.305 5.85364 
59 1 95.94 1.38626 14.3887 2.477 1.60065 -5.55161 7.26634 
64 1 95.94 3.07898 11.6935 2.04805 -0.952543 6.5932 6.20009 
58 1 95.94 1.44385 12.7296 0.037107 3.50078 2.95326 -3.7684 
89 1 95.94 2.89336 15.1428 28.1607 -0.0125018 -1.86297 2.87631 
63 1 95.94 4.58859 14.1448 2.79057 -2.88233 -2.27393 0.0633145 
67 1 95.94 7.30905 14.193 2.37171 -1.65999 1.56696 -2.30654 
68 1 95.94 5.63648 11.4254 2.60661 -4.17295 -4.04122 -5.19809 
62 1 95.94 4.1338 12.5547 28.1909 -9.26445 4.83521 2.01643 
93 1 95.94 6.02007 14.8627 0.0426064 1.036 -2.546 5.44598 
71 1 95.94 9.7916 14.6119 2.1064 4.22815 -1.56549 1.92189 
72 1 95.94 8.78223 11.5158 2.61342 4.21884 0.658951 4.77069 
76 1 95.94 11.6371 11.4041 2.05227 -2.48366 -1.09301 5.11566 
75 1 95.94 12.4935 13.8859 2.26381 -3.10185 -3.51208 7.19855 
79 1 95.94 15.6103 14.1856 2.24032 3.3446 4.08355 -4.97292 
80 1 95.94 14.3328 11.7602 2.4055 4.97867 0.177186 9.84875 
74 1 95.94 12.9532 12.4611 28.1222 10.0965 2.4547 -1.23106 
105 1 95.94 14.3067 15.0451 0.347888 6.35254 2.45649 -1.34474 
78 1 95.94 16.02 12.4576 28.2105 -1.3911 -3.77578 9.04152 
60 1 95.94 20.1294 11.694 2.43784 -0.186268 3.37424 5.29479 
83 1 95.94 18.8608 13.8636 2.38253 3.40846 -0.831127 5.69783 
84 1 95.94 17.0597 11.8804 2.49062 -2.43587 6.03621 4.05452 
109 1 95.94 17.4905 15.0886 28.1535 0.21795 0.915559 0.467951 
82 1 95.94 18.9983 12.7591 28.2882 8.78048 -2.41389 2.75056 
85 1 95.94 0.169934 15.1648 28.147 -1.69212 4.21107 1.9731 
92 1 95.94 2.96472 16.5025 2.22778 -2.49641 2.03987 -1.91212 
86 1 95.94 1.64327 17.6924 27.9945 -3.07597 -9.28024 2.08013 
88 1 95.94 20.1479 16.5836 2.37489 -2.49715 -2.11304 1.31012 
96 1 95.94 5.73137 16.8108 2.26334 1.0318 2.47894 8.1524 
90 1 95.94 4.73456 17.0418 28.0704 -3.36057 4.75487 5.15298 
94 1 95.94 7.5137 17.647 0.0437194 -0.800341 0.389394 -0.277759 
100 1 95.94 8.13943 16.8012 2.63365 -3.52696 -2.98685 -0.0225297 
104 1 95.94 11.7835 16.4733 2.40249 0.405859 4.87666 -1.10206 
98 1 95.94 10.1411 17.4411 28.256 2.75551 0.632146 -5.92756 
108 1 95.94 14.5703 17.0857 2.61725 -1.37237 1.74561 5.32352 
112 1 95.94 17.5613 16.5456 2.61503 -1.55273 -3.10133 2.72562 
110 1 95.94 19.0393 17.5767 28.3089 -2.59728 -2.09985 -0.667998 
106 1 95.94 15.9786 17.6132 28.2835 0.678106 -6.82613 -1.37208 
87 1 95.94 1.20694 19.0622 2.30078 0.894139 2.44853 -2.71747 
120 1 95.94 2.67814 21.5028 2.21582 -3.55476 0.134127 -3.10327 
113 1 95.94 0.445307 20.1776 28.2367 1.00634 12.6425 5.39815 
114 1 95.94 1.87242 22.5066 28.1737 -3.03949 0.742493 0.901742 
117 1 95.94 3.03359 19.6219 28.2324 -2.46042 -3.88206 0.609913 
91 1 95.94 4.00333 19.399 2.81821 4.31286 -2.04112 1.39162 
95 1 95.94 7.14044 19.44 2.23298 -5.66527 -4.50937 8.3412 
124 1 95.94 5.58981 21.831 2.39196 4.64563 6.25868 0.949974 
121 1 95.94 5.56327 20.0161 27.8638 0.46058 0.748697 -8.41952 
118 1 95.94 4.48218 22.3885 28.1888 4.78339 1.21829 5.35745 
99 1 95.94 10.1789 18.9819 2.18189 2.86868 2.04495 -1.28626 
128 1 95.94 8.79252 21.6376 2.8092 -4.68243 -4.50414 -2.0627 
132 1 95.94 11.8539 21.6278 2.42982 5.76957 3.68429 5.32604 
125 1 95.94 8.66212 20.064 0.0696919 -3.1778 -1.51739 -0.416826 
129 1 95.94 11.4649 20.1234 0.233135 0.34796 -5.12192 5.16853 
103 1 95.94 13.0747 19.3888 2.19983 3.14454 8.35098 5.07963 
107 1 95.94 15.8702 19.1864 2.04941 -10.4379 -0.828037 -3.62352 
136 1 95.94 14.6159 21.9215 2.14132 0.171584 -3.13635 -0.90751 
133 1 95.94 14.5489 20.2915 28.1651 -8.78389 0.927843 -6.92892 
130 1 95.94 13.0623 22.6067 0.0918993 1.31535 8.25569 1.36813 
116 1 95.94 20.1292 21.8031 1.85785 -8.62281 -4.50155 -8.43724 
111 1 95.94 18.7342 19.4642 2.23865 -1.38466 -4.12533 -3.3265 
140 1 95.94 16.9451 21.6854 2.19728 4.24962 1.71991 0.430864 
137 1 95.94 17.4156 19.9179 0.0538074 -7.91218 -2.23198 0.402605 
115 1 95.94 1.44981 24.0509 2.61634 -4.87187 0.922554 -6.51711 
145 1 95.94 2.72353 24.8392 0.156323 -4.61628 3.93741 -4.94516 
119 1 95.94 4.21384 24.1767 2.67777 2.32229 -2.91815 0.0896452 
123 1 95.94 7.01156 24.2336 2.55057 -2.22863 -3.86224 -1.00588 
122 1 95.94 7.35266 22.1406 0.151615 2.02018 0.467519 -1.61083 
149 1 95.94 5.82762 24.8752 0.36319 -3.00456 -0.920683 2.89181 
127 1 95.94 10.034 24.0308 2.60054 3.4964 2.01881 9.19267 
157 1 95.94 11.7564 25.3892 28.2772 -14.1057 -2.35497 4.26251 
131 1 95.94 13.3037 24.2157 2.70143 0.928594 1.32152 2.78877 
135 1 95.94 15.9837 24.3298 2.65799 2.18474 -0.868395 2.65185 
134 1 95.94 15.876 22.4428 27.7817 4.44044 -0.667056 0.0399823 
139 1 95.94 19.1068 24.2377 2.43521 0.541815 1.84297 -5.3487 
141 1 95.94 0.0750041 25.0282 0.270274 -0.537689 -4.12205 3.2338 
165 1 95.94 17.3716 24.9286 28.2854 -6.14038 -1.40706 3.78538 
138 1 95.94 18.8981 22.2025 28.1319 3.37377 -3.96495 0.238876 
143 1 95.94 1.16156 29.0018 2.47116 -3.82678 -2.7019 5.43642 
148 1 95.94 2.69821 26.4181 2.62388 -6.82906 1.79939 4.8556 
142 1 95.94 1.44984 27.42 28.278 -3.74084 -2.85237 -3.4197 
9 1 95.94 5.81829 29.7572 0.0426493 5.12631 0.160646 2.59907 
147 1 95.94 4.25451 28.9869 2.82817 -7.04244 -5.34159 4.37142 
151 1 95.94 7.29739 29.0935 2.62036 -3.82599 0.795578 -7.30627 
152 1 95.94 5.80937 26.5412 2.80614 2.67246 4.39841 2.58024 
146 1 95.94 4.45237 27.3004 0.509776 -0.108299 -9.36028 2.53326 
13 1 95.94 8.46795 0.209536 0.153041 9.40759 -5.81303 -0.0682506 
155 1 95.94 10.1586 29.2649 2.37434 8.82718 2.01497 -1.57835 
156 1 95.94 8.67351 26.6721 2.37657 -7.71665 -0.817573 -2.56172 
160 1 95.94 11.5606 26.7047 2.15634 9.16483 3.7894 -0.605435 
154 1 95.94 9.80514 27.6547 28.2229 -0.885173 -0.0720292 8.48463 
159 1 95.94 13.0425 29.2725 2.36493 -2.44012 4.92859 8.16506 
163 1 95.94 15.6765 29.2019 2.41313 4.33114 -1.71006 -2.10309 
164 1 95.94 14.3906 26.5549 2.48413 5.80212 1.00732 3.15369 
21 1 95.94 14.2831 29.8329 0.0762258 7.33372 -2.32587 -4.18389 
158 1 95.94 12.9798 27.5362 28.2333 0.683293 6.84138 6.25703 
162 1 95.94 15.7786 27.6184 0.229784 10.2659 2.89343 -0.224047 
144 1 95.94 20.1373 26.779 2.86304 -8.29617 8.10466 -0.179608 
167 1 95.94 18.3099 29.1122 2.51419 -5.84084 2.57536 5.63056 
168 1 95.94 17.2726 26.7718 2.32186 -0.0262366 -5.62606 -8.53613 
170 1 95.94 1.66511 2.54703 4.67913 7.6818 -3.05741 9.81326 
176 1 95.94 2.90918 2.0556 7.27912 -3.45038 -8.65294 -6.17366 
172 1 95.94 0.211169 1.95778 7.13977 6.90444 2.01143 -4.7051 
174 1 95.94 4.16697 2.54819 4.67947 -0.547486 -0.629901 3.71457 
178 1 95.94 7.11352 2.40863 5.23333 -2.17681 -2.95012 1.233 
180 1 95.94 5.78122 1.27388 7.16228 2.40045 3.05959 0.108225 
182 1 95.94 10.095 2.42934 4.99726 -2.23662 -0.387168 9.2027 
184 1 95.94 8.61815 1.77123 7.09469 -4.36366 2.99845 -4.97202 
188 1 95.94 11.6554 1.82322 7.17398 3.75661 -3.95132 -4.95065 
186 1 95.94 12.7005 2.29049 4.88038 0.723255 1.11116 -1.73876 
190 1 95.94 15.5925 2.5126 4.91072 0.902545 1.59762 0.466718 
192 1 95.94 14.4632 1.76878 7.71825 2.78028 2.13934 5.06885 
194 1 95.94 18.7948 2.30947 4.44349 1.97297 0.93956 -7.04373 
196 1 95.94 17.3605 1.98 6.91497 -4.90141 8.81867 -5.65834 
169 1 95.94 0.150227 0.157428 4.67213 -4.23491 5.44422 0.132123 
171 1 95.94 1.25336 4.60656 7.04766 -1.17967 -6.46552 1.53019 
201 1 95.94 2.71602 5.11749 4.60301 -4.10401 -3.48056 -3.24765 
204 1 95.94 2.89713 6.7267 7.10359 0.717852 0.297194 -8.26887 
197 1 95.94 19.8707 5.10686 4.4806 2.55897 -4.73626 0.697192 
200 1 95.94 20.1157 6.6781 7.31589 -0.337472 0.46698 6.67518 
175 1 95.94 4.08722 4.36269 6.82301 -7.90425 5.26829 -8.88388 
179 1 95.94 7.13839 4.31225 7.08146 4.907 3.86654 0.778537 
205 1 95.94 5.51171 5.08344 4.64426 3.80194 -4.38223 5.26988 
208 1 95.94 5.79769 6.72405 6.87669 -2.49313 -5.964 6.42179 
202 1 95.94 4.53891 7.39165 4.52453 6.18007 -4.01718 -0.713554 
206 1 95.94 7.18762 7.10676 4.77365 -4.70171 5.76265 -13.8227 
183 1 95.94 9.97633 3.92641 7.01952 -5.53884 -0.672887 0.0657662 
209 1 95.94 8.2937 4.60118 4.7983 -0.264862 3.39886 -1.86396 
212 1 95.94 8.78167 6.38599 7.48836 -2.84913 -2.36708 1.71274 
213 1 95.94 11.21 4.95461 4.71669 -3.60011 1.99555 2.79043 
216 1 95.94 11.9075 6.56275 7.03234 -5.61287 -2.92793 -1.87096 
187 1 95.94 12.9997 3.89385 6.65533 -1.66049 5.05727 8.94627 
217 1 95.94 14.4294 5.05177 4.7292 -1.45545 4.96621 10.2051 
220 1 95.94 14.4965 6.57467 6.96126 -0.497502 -0.404357 1.39622 
218 1 95.94 15.5584 7.74484 4.63971 0.354249 -8.43295 -1.93514 
191 1 95.94 15.8343 4.19644 7.28224 1.75728 -5.13865 -2.4273 
195 1 95.94 18.6098 4.36501 7.04838 2.36453 -1.26126 -9.09647 
221 1 95.94 17.1443 4.72326 4.70361 -2.61492 4.16626 4.8763 
224 1 95.94 17.1479 6.97386 7.03429 -3.78184 8.15994 -8.92351 
222 1 95.94 18.3265 7.70857 4.97845 -5.07221 -13.6885 3.41376 
198 1 95.94 1.26167 7.74242 4.67502 -0.627714 -8.41685 1.37622 
199 1 95.94 1.4354 9.19357 7.05249 -4.15548 -2.90203 2.691 
225 1 95.94 20.1304 9.79739 4.69098 -7.15197 -7.93007 1.64913 
229 1 95.94 3.00394 10.171 4.65216 5.1926 0.505175 1.33253 
203 1 95.94 4.61393 8.95525 7.16315 -5.95025 0.59513 -7.94652 
207 1 95.94 7.6949 9.1916 7.25663 -5.63592 7.94176 1.66224 
233 1 95.94 5.92645 10.0781 4.94878 -3.76853 0.144643 0.914668 
210 1 95.94 9.98807 7.52778 4.90966 8.1212 1.57455 -7.41089 
211 1 95.94 10.2482 9.25665 6.83084 -5.01319 4.59001 4.64517 
237 1 95.94 8.70883 9.98222 5.08257 -5.79994 4.9199 -3.70719 
241 1 95.94 11.7671 9.69767 4.71889 5.67257 -6.15043 8.04707 
214 1 95.94 12.7422 7.12158 4.44922 -3.36496 6.29153 -8.20802 
215 1 95.94 13.4438 9.06298 6.81339 -2.6646 -5.20307 -0.772638 
245 1 95.94 14.5448 9.85816 4.32358 2.07028 -1.49685 6.91145 
219 1 95.94 15.9604 9.16267 7.16868 8.02967 -1.27425 -6.13078 
223 1 95.94 18.5805 9.49213 7.2404 2.68226 3.14967 3.20748 
249 1 95.94 17.2531 10.134 4.79777 2.42946 5.35189 -1.40748 
226 1 95.94 1.63843 12.5416 4.49245 -1.23787 -6.47589 1.2514 
227 1 95.94 1.72359 13.9756 7.13808 1.73339 1.33663 -6.06637 
232 1 95.94 3.10438 11.555 7.38053 1.07037 7.61918 -5.29405 
228 1 95.94 19.9393 11.7954 7.20992 6.25461 -3.01805 2.49405 
257 1 95.94 3.02903 14.8847 4.62865 -10.3517 4.86021 -4.24332 
253 1 95.94 20.1144 14.6439 4.64445 -3.59337 1.02164 14.4126 
230 1 95.94 4.489 12.4269 5.06189 2.19968 6.09655 -0.474122 
236 1 95.94 5.89409 11.2253 7.05911 -1.59991 10.284 2.95609 
231 1 95.94 4.25595 14.3171 7.24921 -0.11667 -2.67143 -5.24468 
234 1 95.94 7.2914 12.3717 4.73058 0.510168 -0.508606 2.42554 
235 1 95.94 6.934 14.14 7.09082 7.62869 1.00466 -2.43906 
244 1 95.94 11.3924 11.5136 7.35194 0.0870607 9.9754 9.57935 
238 1 95.94 10.3952 12.4576 4.5985 -2.07226 -4.28524 9.01585 
239 1 95.94 9.84182 14.3599 7.70157 0.339556 -7.83071 -6.64653 
240 1 95.94 8.86017 11.8114 7.18797 -6.52227 5.48267 6.58688 
265 1 95.94 8.92411 14.7705 4.78825 3.13735 5.07291 -4.07581 
242 1 95.94 12.8347 12.2664 4.97678 0.381516 9.22306 -1.05723 
243 1 95.94 12.9623 14.0498 7.06428 -2.5564 -3.2002 7.6086 
247 1 95.94 15.7432 14.371 6.76557 -6.4647 0.694257 -0.395498 
248 1 95.94 14.3035 11.5732 6.99197 -6.12302 2.04113 0.58136 
246 1 95.94 15.5795 12.3581 5.10253 5.15808 -3.64816 3.72485 
250 1 95.94 18.7117 12.2784 4.66912 2.56839 -7.48688 -6.08582 
251 1 95.94 18.712 14.1917 7.17861 2.59021 2.29546 -4.28961 
252 1 95.94 17.312 11.7746 7.31725 -5.9137 -7.56015 1.742 
254 1 95.94 1.45948 17.3506 4.67293 -5.46955 -0.608839 4.66252 
260 1 95.94 2.60115 16.8235 6.83616 5.67386 -2.68723 -4.33001 
261 1 95.94 5.84903 15.0655 4.83606 2.17198 -2.27871 -0.728396 
258 1 95.94 4.62806 17.4887 4.94057 -0.998913 -0.299807 -1.6307 
262 1 95.94 7.31229 17.2615 4.86826 6.91105 -1.54989 1.4555 
264 1 95.94 5.44894 16.5344 7.55455 0.0362107 0.967128 0.435967 
269 1 95.94 11.5234 15.0206 4.83073 5.57907 2.92542 -4.43078 
266 1 95.94 10.0968 17.3593 4.57738 -2.92244 -6.2463 -2.88968 
268 1 95.94 8.52179 16.6434 7.11599 -1.62887 1.15912 3.41348 
272 1 95.94 11.4332 16.5749 6.87772 -5.97613 -4.63609 8.93811 
273 1 95.94 13.9378 15.152 4.30445 -1.05982 0.0426324 3.91067 
270 1 95.94 12.8223 17.5232 4.52852 4.92521 9.80375 0.10149 
274 1 95.94 16.2615 17.0321 4.58155 -1.52088 -9.11261 2.7834 
276 1 95.94 14.4004 16.6385 7.01181 -4.52918 -3.79177 1.57621 
277 1 95.94 17.0291 14.2661 4.41079 6.32649 -0.14024 2.65094 
256 1 95.94 0.0838951 16.6026 7.08572 -5.00501 -3.55588 1.27978 
278 1 95.94 18.681 16.9559 5.01769 2.63874 5.09907 2.91806 
280 1 95.94 17.356 16.9342 7.55472 -2.74482 5.44413 -2.84908 
255 1 95.94 1.19043 19.2805 7.07187 1.55342 2.62604 5.69053 
285 1 95.94 2.67116 19.8688 4.81474 8.22169 5.03565 -6.73051 
288 1 95.94 2.47764 21.5418 6.81682 10.4549 -2.60528 3.11221 
284 1 95.94 19.8533 21.7095 6.88014 -3.97734 -1.11631 5.59865 
282 1 95.94 0.993925 22.4334 4.7985 1.17543 -7.79058 -3.35835 
259 1 95.94 4.29783 18.8267 7.26651 -6.42833 -4.72409 1.40345 
263 1 95.94 6.94147 19.0984 7.14891 1.73081 -7.58552 4.44362 
289 1 95.94 5.63332 20.2001 4.89945 -0.437485 -2.24437 -0.373403 
292 1 95.94 5.24267 21.6779 6.92655 -4.58909 -13.906 5.14002 
286 1 95.94 4.1624 22.2907 4.46816 0.881387 3.59088 -1.24492 
267 1 95.94 9.95852 19.1993 6.81344 3.87059 -3.86065 -5.20906 
293 1 95.94 8.44361 19.8215 4.36341 0.152999 4.31603 0.444447 
296 1 95.94 8.15285 21.2271 6.6563 -5.87198 10.7066 -5.35614 
297 1 95.94 11.1844 20.1347 4.63219 -0.325438 -0.761756 0.188363 
300 1 95.94 11.2433 21.9609 7.17454 -0.245392 4.37194 -12.029 
275 1 95.94 15.6009 19.0447 6.80771 1.9173 2.11238 3.31232 
271 1 95.94 12.7005 18.9943 6.74003 6.23027 6.80332 -2.27966 
301 1 95.94 14.4319 20.2644 4.17593 5.97621 8.09092 4.18681 
304 1 95.94 14.2808 21.6013 7.08422 0.948037 2.72268 -4.15267 
302 1 95.94 15.7825 22.7417 4.69939 -0.913 -1.03402 -1.21954 
281 1 95.94 20.0224 20.0216 4.5574 9.90552 -1.00798 6.06299 
279 1 95.94 18.4774 19.2043 6.90755 -5.10564 -3.6997 6.33841 
305 1 95.94 17.3148 19.9971 4.61329 0.441727 7.98929 -4.59752 
308 1 95.94 16.8876 21.5444 6.749 -2.48691 5.40975 5.33176 
283 1 95.94 1.48464 23.7199 7.39879 -3.61381 -4.97699 5.21725 
313 1 95.94 3.0204 24.7325 4.98799 -5.59583 -6.12346 -10.138 
309 1 95.94 20.1294 25.2011 4.74831 9.15176 1.67887 -3.9111 
316 1 95.94 2.91539 26.5784 7.22482 7.83989 -2.96277 -3.15948 
290 1 95.94 6.95879 22.5739 4.60876 0.311306 3.17213 5.81385 
287 1 95.94 4.60006 23.914 6.75667 -7.64871 2.38518 4.06558 
291 1 95.94 7.11851 24.0747 6.95185 -5.33456 -5.51908 -8.13518 
317 1 95.94 5.68372 24.7497 4.97214 -1.02624 -1.01024 3.52831 
294 1 95.94 10.0927 22.8199 4.77911 2.16786 7.66796 5.95 
295 1 95.94 10.1407 24.2974 7.17092 2.55882 1.67865 -4.48002 
321 1 95.94 8.61075 25.0594 4.96558 -5.38323 -0.193882 -7.60656 
325 1 95.94 11.4202 25.1065 4.8524 -2.14727 -3.27237 -7.19488 
298 1 95.94 12.9775 22.3761 4.87589 1.38661 1.10259 -1.88636 
299 1 95.94 13.1222 24.2987 7.11347 -9.68864 5.1514 4.68831 
329 1 95.94 14.1239 25.4134 4.94594 0.600757 1.19909 1.8807 
303 1 95.94 15.8915 24.4342 7.28036 1.07208 2.19405 -2.40121 
306 1 95.94 18.6563 22.5631 4.51459 4.48926 4.06794 1.70954 
307 1 95.94 18.7803 24.3681 7.04357 -10.1526 1.05542 1.86259 
333 1 95.94 17.2587 25.0967 4.83063 -15.8026 -1.32621 5.57828 
312 1 95.94 0.0685017 26.789 7.11329 -6.33257 3.97084 -5.02258 
173 1 95.94 2.87901 30.0349 4.84267 -2.71343 2.41744 -2.12579 
310 1 95.94 1.47912 27.6886 5.02877 -2.2026 2.01772 -4.3405 
311 1 95.94 1.76414 29.3594 7.2453 2.49411 3.72533 6.84413 
177 1 95.94 5.87656 29.7514 4.58329 1.5841 2.33846 1.4085 
314 1 95.94 3.76526 27.259 4.95787 2.32317 0.919615 3.58699 
315 1 95.94 4.35741 29.0216 7.19386 1.22029 7.82534 3.30989 
318 1 95.94 7.06437 27.3376 5.02545 -6.01688 4.67153 3.23211 
319 1 95.94 7.23433 29.2275 6.99592 -1.48721 0.917379 -2.89545 
320 1 95.94 5.98439 26.5268 7.51289 4.42902 -3.62614 1.65571 
181 1 95.94 8.78814 29.5978 4.82376 4.11562 4.51846 -7.97583 
185 1 95.94 11.3302 29.9748 4.71698 0.660475 8.05005 -2.94129 
322 1 95.94 10.1317 27.389 4.87198 -1.16293 9.59476 -1.4798 
323 1 95.94 10.2849 29.4179 7.05251 -0.164714 6.42096 5.73234 
324 1 95.94 9.01522 26.8499 7.29467 -4.49966 -8.36955 -2.19645 
328 1 95.94 12.1366 26.8941 7.33791 1.58862 0.233221 7.39759 
189 1 95.94 14.3165 0.238899 5.04962 8.43771 4.77041 -1.68975 
326 1 95.94 12.9022 27.8905 4.53254 -3.31317 3.35696 1.27021 
327 1 95.94 13.1254 29.3619 7.17032 -1.17708 -0.913422 2.24091 
330 1 95.94 16.022 27.6297 4.61044 -7.92623 -2.33811 2.90863 
331 1 95.94 16.1721 29.2468 6.98979 5.99526 -6.16903 -6.14478 
332 1 95.94 14.5051 26.8183 7.35604 -4.65578 1.67704 12.2599 
193 1 95.94 17.3183 0.26516 4.80018 1.67089 2.59857 -0.830579 
334 1 95.94 18.5673 27.612 4.96397 1.02823 -5.78348 4.62426 
335 1 95.94 18.9693 29.4879 7.18476 6.9913 3.93874 0.774494 
336 1 95.94 17.5155 26.9563 7.46582 4.23083 -2.93417 -1.01308 
338 1 95.94 1.32909 2.51942 9.24776 2.43279 1.19751 0.850501 
344 1 95.94 2.91436 1.62143 11.6139 3.28046 4.40338 -4.37608 
341 1 95.94 3.0164 0.234023 9.57622 9.4398 1.514 8.30584 
337 1 95.94 0.141169 29.8163 9.7804 0.930286 0.942932 7.30706 
342 1 95.94 4.39451 2.78916 9.12301 7.94989 -1.68045 -5.00134 
346 1 95.94 7.16263 2.21886 9.56484 -1.67781 -0.815806 -2.56585 
348 1 95.94 5.20476 1.63403 11.5321 -9.70578 1.0349 -1.2091 
345 1 95.94 5.95726 29.9241 9.4483 4.22641 -0.212746 5.38083 
350 1 95.94 10.0738 2.62433 9.62753 5.37908 -0.645149 4.4283 
352 1 95.94 8.77236 1.81928 11.8968 -0.891695 4.05742 -3.16885 
356 1 95.94 11.8224 1.58092 11.7726 4.38686 5.64094 7.39419 
349 1 95.94 8.76583 29.9178 9.35416 0.144714 8.72543 8.34235 
353 1 95.94 11.6699 0.245559 9.21513 5.75834 -17.6279 -5.23951 
354 1 95.94 12.7582 3.01801 9.30665 -5.22296 -1.19418 3.12655 
358 1 95.94 16.3197 3.15522 9.62801 -5.87739 4.80328 -2.58555 
360 1 95.94 14.3971 1.72194 11.4437 -2.89473 -1.73424 -1.60827 
357 1 95.94 14.4064 29.2197 9.33148 1.29366 -4.27566 -2.98304 
340 1 95.94 0.14038 1.58587 11.4663 -7.16017 2.49095 1.89112 
362 1 95.94 18.9993 2.46698 9.46188 2.70149 9.08835 -1.66358 
364 1 95.94 17.2216 1.68018 11.9874 -2.34689 1.86987 -3.66024 
361 1 95.94 17.5045 0.155403 9.38038 -5.40952 4.5051 -1.08058 
369 1 95.94 2.64945 4.84988 9.43952 -4.77206 2.73873 1.31871 
372 1 95.94 2.7422 6.65225 11.5485 1.9678 -2.45166 -2.90918 
339 1 95.94 1.39108 4.0538 12.1114 -4.15295 -5.52894 -1.41403 
368 1 95.94 19.9991 6.48535 11.9604 -6.59423 -6.22449 3.05644 
373 1 95.94 5.77174 5.03377 9.47133 -0.969596 -2.13535 4.93941 
343 1 95.94 4.40021 4.22268 11.6801 -0.564782 0.958916 3.01597 
347 1 95.94 7.16104 4.03443 11.6658 -4.2856 1.95285 8.13358 
376 1 95.94 5.89003 6.73935 12.0176 3.58667 2.15836 -2.05564 
377 1 95.94 8.74281 4.99384 9.6156 8.90528 2.45287 -5.17935 
381 1 95.94 11.2213 5.09715 9.64519 4.4421 4.14196 4.75774 
351 1 95.94 10.152 4.22187 12.2587 -6.79794 -4.3063 1.61071 
380 1 95.94 8.80491 6.99153 11.7458 2.96879 5.61846 -0.260902 
384 1 95.94 11.4163 6.8251 12.0293 8.38207 3.77427 -3.95619 
378 1 95.94 10.1453 7.38098 9.42158 -5.9451 6.47223 -0.660606 
385 1 95.94 14.5443 5.09009 9.53965 -3.13851 3.74115 -6.71507 
355 1 95.94 12.6005 4.69569 11.7659 1.95936 -8.1195 2.76799 
388 1 95.94 14.2626 6.75574 11.9216 -4.46434 -2.23757 -6.0015 
386 1 95.94 15.9578 7.36911 9.34895 4.82573 -8.65909 -0.815089 
359 1 95.94 15.7296 4.09933 11.7979 3.53739 -6.8639 -1.85049 
382 1 95.94 12.9752 7.38423 9.33759 0.646051 -2.34459 4.74877 
365 1 95.94 0.188139 5.06023 9.73612 1.06952 -12.9591 -4.93478 
389 1 95.94 17.7932 4.87958 9.35461 2.33115 2.16144 -0.652868 
392 1 95.94 17.1387 6.49707 11.9305 -3.0093 1.41579 -11.3769 
363 1 95.94 18.3573 3.97991 11.9589 -1.85558 9.30826 -6.96626 
366 1 95.94 1.50724 7.50552 9.40013 10.426 3.46164 -3.06963 
397 1 95.94 3.02604 9.2949 9.45288 -2.80259 2.16595 0.0794712 
367 1 95.94 1.31408 9.03555 11.8017 7.01921 -0.83872 6.35067 
370 1 95.94 4.56584 7.23661 9.33168 2.71183 -1.94966 -0.557101 
374 1 95.94 7.33383 7.28395 9.27804 -0.123147 3.84525 2.84321 
371 1 95.94 4.56218 9.02365 11.4765 -0.983653 -4.53206 -8.97902 
401 1 95.94 5.9535 9.90071 9.56663 -3.73619 -1.00025 2.72491 
375 1 95.94 7.45128 9.39549 12.3449 -0.431361 3.6492 3.25086 
405 1 95.94 8.58128 10.2415 9.27292 -2.12719 2.95219 -2.51833 
409 1 95.94 11.6638 9.89985 9.45273 4.88152 -5.1055 -5.38273 
379 1 95.94 10.0706 9.64299 11.5572 4.68863 -0.525914 -6.70748 
413 1 95.94 14.4688 9.8819 9.58563 -1.37733 -2.32378 -0.538862 
383 1 95.94 12.7799 9.24357 11.8327 0.204434 6.91423 -11.5673 
387 1 95.94 15.756 9.21495 11.8783 -2.72486 -1.65113 -5.97132 
390 1 95.94 18.7149 7.39808 9.69332 -2.61936 -4.96372 1.00719 
393 1 95.94 20.03 9.87637 9.71842 -2.13208 4.56958 1.44517 
417 1 95.94 17.2307 9.77994 9.49987 2.64398 7.2521 -3.00826 
391 1 95.94 18.566 8.88872 11.7263 6.15848 4.50246 9.96161 
394 1 95.94 1.02598 12.1546 9.58719 -8.69617 4.52817 -1.47659 
400 1 95.94 2.48087 11.484 11.8355 -3.29739 -7.09548 3.53097 
395 1 95.94 1.55903 14.2131 11.9432 -1.72517 7.85173 0.284025 
396 1 95.94 20.0251 11.8497 11.972 0.440761 -4.61188 -10.9393 
398 1 95.94 4.22916 12.4628 9.67918 -7.50705 -7.27446 -4.86964 
399 1 95.94 4.06528 14.1211 11.8488 0.011677 3.07662 3.03157 
402 1 95.94 7.35315 12.7148 9.35772 5.82227 -0.612437 8.2962 
403 1 95.94 7.39024 13.9804 11.6285 -1.67463 -2.07279 -2.15625 
404 1 95.94 5.83212 11.5818 11.904 0.512316 -3.01149 -7.09783 
408 1 95.94 8.55082 11.763 11.9788 4.24666 -0.542105 -0.316965 
406 1 95.94 10.1492 12.2954 9.72025 5.87355 3.64279 14.1685 
407 1 95.94 10.0412 14.002 11.6871 -0.653044 0.605847 7.66935 
412 1 95.94 11.6359 11.7838 11.8376 1.23332 1.06622 -1.6609 
410 1 95.94 13.1995 12.5049 9.41354 -5.34791 2.25618 2.81756 
411 1 95.94 12.7501 14.0886 11.8025 2.4562 -4.68421 -5.63201 
415 1 95.94 15.5276 14.0525 11.4456 -4.02501 -11.1055 -5.80208 
416 1 95.94 14.3228 11.7001 11.5883 3.09977 -11.7828 7.47558 
414 1 95.94 15.7836 12.553 9.58625 1.3899 -0.0531029 2.99583 
418 1 95.94 18.8285 12.3297 9.56033 6.53647 -9.64452 -8.45383 
419 1 95.94 18.6457 14.022 12.1053 7.07295 -2.50865 -0.956259 
420 1 95.94 17.2037 11.7845 11.6857 -4.18139 2.40688 -2.2917 
421 1 95.94 19.8431 14.8676 9.54512 -2.69969 -9.25352 3.19254 
425 1 95.94 2.85074 15.0792 9.65082 -4.39383 5.8806 -0.15345 
422 1 95.94 1.33878 17.657 9.39954 0.617589 -0.161995 0.459927 
428 1 95.94 2.70846 16.77 11.9889 4.5222 -4.36471 -3.48181 
429 1 95.94 5.84401 15.0337 9.57962 -1.44582 1.81481 1.1814 
426 1 95.94 4.04821 17.4919 9.55023 1.28595 0.0423334 5.37124 
430 1 95.94 7.12703 17.3733 9.88374 -0.568987 -0.187945 0.0753213 
432 1 95.94 5.70223 16.5006 11.9406 -10.1391 5.18393 -0.151406 
433 1 95.94 8.63474 15.5551 9.53058 3.6376 8.77357 12.4882 
437 1 95.94 11.6032 15.0245 9.44413 1.07648 6.64375 1.97193 
434 1 95.94 10.2609 17.5986 9.6214 7.84753 2.70285 0.743863 
436 1 95.94 8.41071 16.524 12.0034 -11.1061 -2.36233 2.43909 
440 1 95.94 11.3566 16.1056 11.8746 -2.64132 -1.79457 6.18734 
441 1 95.94 14.1984 15.2561 9.25841 4.04476 -0.889552 0.132376 
438 1 95.94 12.7105 17.6289 9.28375 3.85805 -7.0783 3.19559 
442 1 95.94 15.6728 17.6263 9.43289 1.0844 -6.27571 6.33676 
444 1 95.94 14.2917 16.687 11.5349 6.00463 -6.57641 2.7902 
445 1 95.94 17.0468 15.2299 9.53103 10.3308 5.13131 -1.02025 
424 1 95.94 20.0548 16.4448 11.6486 4.25323 -0.966238 9.47452 
446 1 95.94 18.6693 17.585 9.58989 -1.47478 7.51462 -5.33903 
448 1 95.94 17.2162 16.2862 12.0086 -8.20341 0.97337 1.02336 
453 1 95.94 2.98447 20.026 9.31272 4.53526 1.79967 4.08198 
450 1 95.94 1.32808 22.4806 9.60034 -4.10678 -0.821236 -3.52163 
423 1 95.94 1.22431 19.2465 11.5907 -3.97434 -2.96226 2.31147 
456 1 95.94 2.59757 21.5118 12.0743 -1.31136 3.33665 -1.11732 
427 1 95.94 4.24058 19.2968 12.0608 12.105 1.53941 -2.73184 
457 1 95.94 5.81768 20.1557 9.41025 3.56232 4.30289 9.12252 
460 1 95.94 5.37216 21.429 11.5025 -5.63073 2.35383 -4.56092 
431 1 95.94 7.35177 19.6359 11.9367 -0.890978 -3.61143 -1.93953 
454 1 95.94 4.0171 22.7487 9.38401 -2.58223 8.42114 0.00682692 
461 1 95.94 8.5955 19.8909 9.23925 -3.62222 -2.79336 0.92778 
465 1 95.94 11.2406 19.9852 9.26338 -2.1396 -1.9398 3.16672 
464 1 95.94 8.87103 21.635 11.8239 0.110843 5.45657 1.24081 
468 1 95.94 11.7135 21.7304 11.5173 -0.495899 -3.34838 -1.96794 
435 1 95.94 10.267 18.956 11.8632 -1.12807 2.59499 3.0689 
469 1 95.94 14.1461 19.9232 9.32551 -3.42327 8.75438 2.28729 
439 1 95.94 12.8314 18.908 11.5419 6.38521 4.2261 2.23137 
443 1 95.94 16.129 18.8715 11.8389 1.14875 2.0357 9.5238 
466 1 95.94 13.2013 22.7075 9.37412 0.592285 0.221758 0.172002 
447 1 95.94 18.9094 18.9255 11.7601 12.2627 -2.53095 1.10753 
449 1 95.94 20.1188 20.2835 9.18272 6.50486 4.5715 0.148414 
473 1 95.94 17.2975 20.2332 9.12553 0.776406 -7.76885 -0.476012 
476 1 95.94 17.1049 21.4755 11.7301 5.5848 5.84493 -2.88472 
452 1 95.94 19.8063 21.6835 11.4567 -7.98308 -2.52674 -0.536354 
481 1 95.94 2.41962 25.2703 9.84406 -8.47056 -1.77051 -4.50789 
451 1 95.94 1.3138 24.0397 11.7068 1.89136 -10.8718 -3.7359 
477 1 95.94 19.9652 25.1181 9.15927 -1.94862 3.91534 -1.36899 
458 1 95.94 7.12278 22.5823 9.2678 5.63568 -6.04968 5.01426 
455 1 95.94 4.31206 24.0868 11.8735 1.25732 5.57172 -8.37249 
485 1 95.94 5.30169 24.8096 9.25281 -8.01868 -0.0163819 5.46361 
459 1 95.94 7.38108 24.6201 11.3524 4.34467 -2.12856 -7.90664 
462 1 95.94 10.0289 22.4634 9.45798 -1.55741 -2.3957 2.21151 
489 1 95.94 8.65254 25.1532 9.2285 -6.29066 -0.337583 0.482974 
493 1 95.94 11.4117 25.027 9.6185 -13.3988 2.88294 -2.23407 
463 1 95.94 10.2439 24.6216 11.8014 2.63907 5.27847 -5.97698 
470 1 95.94 15.6925 22.5464 9.6173 -1.92893 2.58918 -3.84352 
497 1 95.94 14.4517 25.2896 9.31309 -2.16771 1.56121 -0.79232 
467 1 95.94 12.9264 24.2115 11.9652 0.927383 3.76621 4.06279 
471 1 95.94 15.5235 24.1349 11.6634 -3.25743 3.99298 7.98453 
474 1 95.94 18.4541 22.6197 8.94086 -1.52022 -1.34386 -3.37214 
501 1 95.94 17.2516 24.7481 9.64022 0.13065 6.56391 -3.20703 
475 1 95.94 18.7122 24.0856 11.5991 1.06885 4.31184 2.3215 
480 1 95.94 0.0836197 26.5902 11.9692 -4.42385 -9.33164 -1.60179 
478 1 95.94 1.56428 27.7123 9.67697 1.28118 3.66495 -4.56048 
479 1 95.94 1.34481 29.2719 11.7947 5.84068 -2.97236 4.14636 
484 1 95.94 2.5464 26.815 12.153 4.05268 -1.2321 -2.91427 
482 1 95.94 4.32544 27.5973 9.69116 4.75358 3.11149 -3.13185 
483 1 95.94 4.59786 29.0709 11.8365 -0.863977 6.59054 3.59052 
488 1 95.94 5.81568 26.7384 11.6304 3.11138 2.42146 2.93239 
486 1 95.94 7.36047 27.7284 9.49975 -3.00601 -4.04986 2.98416 
487 1 95.94 7.17989 29.5567 11.7822 -5.43703 -3.7478 -2.69404 
490 1 95.94 10.0107 27.321 9.50139 0.413626 -0.498593 0.995079 
491 1 95.94 9.94712 29.0515 11.904 9.15982 4.15972 -7.43767 
496 1 95.94 11.5309 26.596 12.0203 5.26806 -1.862 -0.966715 
492 1 95.94 8.73013 26.5358 11.7401 -7.46782 4.52857 -4.99469 
494 1 95.94 12.7494 27.5673 10.0376 4.53284 -4.2586 -4.60353 
498 1 95.94 15.9822 27.2198 9.47067 -3.43378 -10.9381 -3.8009 
495 1 95.94 12.8832 29.157 11.7923 4.07504 -4.45243 -9.83857 
500 1 95.94 14.4055 26.8879 11.8485 8.57205 -2.2414 -9.83483 
499 1 95.94 15.8709 29.1129 11.6424 2.23979 -3.44289 -2.90694 
502 1 95.94 18.9139 27.5939 9.62795 -6.50457 5.89585 -3.26323 
503 1 95.94 18.7186 29.5272 11.8076 6.82428 6.10297 2.48858 
504 1 95.94 17.4428 26.7311 11.8403 6.09394 3.55414 0.219153 
506 1 95.94 1.4249 2.04786 13.9361 5.10145 -8.88559 -6.88423 
510 1 95.94 3.94359 2.53308 14.0889 9.50193 -4.33733 4.972 
514 1 95.94 6.8434 2.35469 13.9748 3.48583 -6.8672 -0.393773 
513 1 95.94 5.73686 29.6316 13.976 -5.74692 6.01068 -0.323889 