ITEM: TIMESTEP
1000000
ITEM: NUMBER OF ATOMS
6912
ITEM: BOX BOUNDS pp pp pp
-1.7983846022641359e-02 3.4697983846024783e+01
-3.1148935027317748e-02 6.0098670941516666e+01
-2.9367497580935265e-02 5.6661570350737023e+01
ITEM: ATOMS id type mass x y z vx vy vz 
8 1 95.94 2.96865 1.69936 2.19714 -12.0963 -2.44313 -4.79897 
74 1 95.94 1.82419 2.48368 4.43544 -2.0963 -4.64124 3.32053 
6 1 95.94 4.32043 2.74786 0.198661 4.92965 5.93777 -7.86648 
73 1 95.94 0.152217 0.396239 4.47631 -4.08569 -0.773681 2.81008 
2 1 95.94 1.69731 2.62544 0.0450986 -8.93252 -3.36689 -5.93554 
4 1 95.94 -0.0154896 1.57497 2.04053 1.31027 -5.08029 2.2429 
12 1 95.94 5.63325 1.65403 2.53565 -3.41329 -4.27963 4.2711 
16 1 95.94 8.51698 1.70885 2.28649 3.62067 -6.49127 3.46296 
10 1 95.94 7.14461 2.36008 0.311482 0.449792 3.84073 7.28856 
20 1 95.94 11.6836 1.94356 2.10279 -2.164 -4.98014 -3.20967 
90 1 95.94 12.9639 2.49541 4.63103 -9.9326 -13.5645 -1.01199 
14 1 95.94 10.0521 2.26644 0.0669871 -4.15824 -9.12112 -0.114602 
24 1 95.94 14.3841 1.63223 2.31707 1.75333 0.996966 5.76432 
3460 1 95.94 16.9893 1.81344 2.51711 7.09645 2.25889 -3.9017 
3457 1 95.94 17.1838 -0.0230489 0.0230154 4.1182 5.24739 3.8774 
18 1 95.94 13.1028 2.47666 -0.0059902 -0.475267 3.78894 8.04403 
26 1 95.94 1.27193 7.23936 0.532448 6.53743 -9.5459 3.12186 
3 1 95.94 1.28767 4.00476 2.19414 4.29689 0.303473 -2.31572 
32 1 95.94 2.5681 6.42987 2.40661 -2.39299 5.82684 3.70179 
25 1 95.94 0.0534777 4.96353 0.143209 -1.41336 -1.02943 -3.42233 
101 1 95.94 2.9182 4.90335 4.45321 -0.283715 -1.16141 2.82404 
97 1 95.94 0.0675349 5.01178 4.53684 1.26157 -7.84238 -1.08643 
29 1 95.94 3.20672 4.9774 0.113502 1.85781 -3.69559 3.67444 
37 1 95.94 8.51012 4.57736 0.589921 4.04307 -0.0146137 6.1136 
7 1 95.94 4.40737 4.29041 2.29724 -3.10633 2.5907 -0.382408 
11 1 95.94 7.32722 4.20675 2.73846 -1.76773 3.8252 -4.92782 
36 1 95.94 6.31115 6.43201 2.03335 0.425047 -3.97178 2.36306 
30 1 95.94 4.45182 7.23661 0.118467 -3.73646 -0.295701 1.57158 
105 1 95.94 5.90239 5.15783 4.57289 0.516788 -1.95411 -3.25051 
15 1 95.94 10.1545 4.15404 2.528 -1.87322 -4.17105 6.45071 
40 1 95.94 9.05446 6.39585 2.44648 -7.56723 2.56829 4.5833 
44 1 95.94 11.4425 6.82123 2.25491 -6.64524 -0.205661 -2.23708 
19 1 95.94 12.8492 4.65685 2.33019 -0.547737 4.91504 9.26624 
114 1 95.94 12.8624 7.3693 4.26315 -5.19039 -1.00391 2.29373 
41 1 95.94 11.2197 4.71852 -0.0231387 1.25078 5.86332 4.96391 
23 1 95.94 15.5481 4.33258 2.21503 -3.54075 7.2783 0.00721 
48 1 95.94 14.5716 6.74542 2.41372 -4.14631 -9.63847 7.8245 
117 1 95.94 14.4875 4.70083 4.68451 3.01368 -0.294607 5.28276 
3484 1 95.94 17.1832 6.48746 2.6202 -0.825581 3.39179 0.495902 
27 1 95.94 1.59239 9.23816 2.44404 -3.98448 3.43024 -12.3078 
53 1 95.94 3.09774 9.6314 0.0717995 -2.01354 -16.4948 3.78136 
49 1 95.94 0.17258 9.84677 0.508094 3.08469 -1.16015 8.87543 
61 1 95.94 8.62021 10.0552 0.160855 4.09763 2.70766 2.1524 
31 1 95.94 4.48799 9.31011 2.36242 -3.41835 -0.713446 -0.525246 
35 1 95.94 7.58109 9.08505 2.36307 -0.990281 5.53993 10.7863 
102 1 95.94 4.39677 7.60884 4.49641 -5.06401 -3.36801 -1.75543 
39 1 95.94 10.3593 9.28569 2.15144 -2.82034 15.3595 5.69549 
133 1 95.94 8.74689 9.84229 4.67546 2.0618 -1.74957 0.29119 
65 1 95.94 11.6872 9.69995 0.266644 -5.39589 -2.51307 1.47604 
46 1 95.94 15.9515 7.52266 0.100017 -2.43342 -5.88701 -4.44919 
43 1 95.94 13.0813 9.05029 2.02066 3.9292 -2.92737 -1.24527 
47 1 95.94 15.5947 9.4413 2.5849 -4.23796 -4.82487 6.08413 
69 1 95.94 14.5013 9.97902 0.240223 3.33436 5.11078 -5.66608 
56 1 95.94 2.62211 11.4264 1.85328 3.89102 -4.92613 -8.69088 
51 1 95.94 1.41739 14.3399 2.5312 -0.834575 -0.0763879 8.26795 
55 1 95.94 4.28667 13.9343 2.20327 4.96596 -3.4254 5.48757 
941 1 95.94 2.9053 14.7056 4.68786 1.15081 11.2826 5.75757 
50 1 95.94 1.36418 12.4649 0.108271 -3.89512 3.07474 -6.80883 
52 1 95.94 0.14648 11.9949 2.43074 -3.2235 -11.9153 -5.17451 
877 1 95.94 8.3954 14.9189 0.226612 -0.986326 -2.02472 -1.42042 
58 1 95.94 7.38933 12.31 0.0432488 5.65587 6.64154 -6.79456 
126 1 95.94 4.35697 12.3534 4.62902 -3.40359 1.28254 3.21579 
60 1 95.94 5.74339 11.3957 2.49469 1.3711 2.6194 1.10187 
59 1 95.94 7.11091 14.2488 2.51083 7.10364 -3.32642 6.24002 
130 1 95.94 7.05766 12.3513 4.5992 -1.35706 -6.78511 -2.3592 
64 1 95.94 8.66051 11.5859 2.34422 1.37662 0.988412 1.27044 
68 1 95.94 11.7359 11.4599 2.46187 -4.59569 -2.38032 0.296499 
63 1 95.94 10.0436 13.8943 2.2863 6.72879 -2.23271 -0.524522 
134 1 95.94 10.0869 12.0116 4.61895 2.45412 -11.2498 5.55578 
953 1 95.94 11.7797 14.9526 4.55587 -2.81906 -4.28779 2.23585 
881 1 95.94 11.6446 14.7203 0.0851557 -6.58658 3.48273 -1.17404 
67 1 95.94 13.0052 14.0994 2.39218 6.58865 -2.34756 -2.21261 
72 1 95.94 14.6156 11.7935 2.4729 -0.319792 10.0564 1.01052 
71 1 95.94 15.9867 13.9788 2.36847 -4.64932 -5.71441 -3.95105 
957 1 95.94 14.4805 14.8844 4.53765 2.13388 0.820542 3.81196 
3508 1 95.94 17.3207 11.6148 2.27987 -4.23902 2.25801 -5.15014 
77 1 95.94 3.30314 0.364052 4.84114 7.42234 -1.20523 3.7872 
145 1 95.94 0.0219841 0.147995 8.99198 2.40715 -0.347215 0.903002 
80 1 95.94 2.98182 1.95777 7.44319 4.74375 -4.49123 -3.05497 
157 1 95.94 8.55824 0.0238289 9.39843 0.992089 5.63455 -2.95421 
82 1 95.94 7.41066 2.27128 4.87274 -5.28263 -3.9471 0.249322 
78 1 95.94 4.50551 2.43085 5.11447 -2.14704 -0.599445 1.85772 
84 1 95.94 5.55677 1.56664 7.12432 -11.0264 6.20299 -4.40615 
154 1 95.94 7.17854 2.45393 9.20129 1.36272 -0.119536 -7.54238 
86 1 95.94 10.2163 2.26396 5.09855 -7.46529 1.06319 0.475455 
88 1 95.94 8.66753 1.65575 7.23309 3.81159 11.2383 9.71128 
92 1 95.94 11.7236 1.17227 7.08915 5.96562 2.36785 8.55439 
94 1 95.94 15.3873 2.26412 4.87702 -9.20252 -2.84357 -6.16762 
96 1 95.94 14.6128 1.16143 7.66075 0.964647 7.57335 -12.3933 
166 1 95.94 16.0684 2.46131 9.31819 13.3864 7.01568 -5.51329 
75 1 95.94 1.28728 4.15543 6.77941 2.34926 -0.901463 4.62295 
104 1 95.94 3.19327 6.47269 7.04635 -5.16733 -0.0881475 3.64609 
173 1 95.94 2.91382 5.03538 9.2082 3.81645 -4.30957 -5.86367 
98 1 95.94 1.58826 7.19486 4.85198 -0.63048 -11.1119 -3.63379 
100 1 95.94 0.0538757 7.15654 7.3642 5.07369 -6.5513 -3.33593 
106 1 95.94 7.26839 7.36548 4.76809 -3.90593 -3.33147 -6.67244 
79 1 95.94 4.57944 4.3095 7.17513 0.120671 -5.64902 0.115256 
83 1 95.94 7.10591 4.15043 7.32052 0.013078 -5.38091 -3.66439 
108 1 95.94 6.1675 6.64355 7.26066 5.28125 -7.02511 1.40416 
109 1 95.94 8.7987 4.62498 5.04122 -4.9284 -0.576036 -3.67941 
113 1 95.94 11.3447 5.14369 4.94908 8.31592 0.483802 -5.01711 
110 1 95.94 9.88285 7.37216 4.9183 3.45848 1.24971 -3.33573 
112 1 95.94 8.92292 6.43993 7.25094 -2.92716 -2.72649 8.87978 
87 1 95.94 10.2202 3.81506 7.33486 0.177698 -0.715982 -2.90594 
116 1 95.94 11.3771 6.32893 7.52265 0.939355 1.92802 0.960837 
118 1 95.94 15.5012 7.30188 4.92699 -0.89991 2.78777 2.97147 
91 1 95.94 13.1679 3.932 6.93066 2.71751 -0.403483 9.99542 
3553 1 95.94 17.3047 5.10348 4.96079 4.83504 -7.27219 2.64381 
95 1 95.94 15.902 3.86843 7.10049 -0.456701 6.30121 1.29227 
120 1 95.94 14.5716 6.32733 7.21156 4.61962 -4.98505 7.28147 
125 1 95.94 3.08975 9.75623 4.71584 -2.0789 1.24946 -3.26985 
99 1 95.94 1.78769 9.22315 6.80944 -1.21509 7.05976 -1.21969 
121 1 95.94 0.162635 10.2735 4.87352 -5.01862 -1.97308 5.42869 
129 1 95.94 5.84302 9.606 4.97842 -0.825965 -6.14946 -0.0197815 
103 1 95.94 4.43735 9.14534 7.46515 -1.39968 -0.220167 -0.00626447 
107 1 95.94 7.48407 9.42704 7.27435 4.8295 4.34122 5.82083 
201 1 95.94 6.04482 10.0192 9.35812 -3.20156 2.86666 -3.48909 
137 1 95.94 11.6793 9.79039 4.85915 0.954539 -1.81821 -2.54132 
111 1 95.94 9.9933 8.89296 7.09174 -1.31204 -5.67947 2.02099 
115 1 95.94 12.8629 8.87774 7.13938 -4.64321 2.12618 1.9811 
205 1 95.94 9.2041 10.0927 9.32215 3.05507 -4.41279 0.059313 
3577 1 95.94 17.1666 10.0655 5.00831 -2.99671 1.12055 4.83147 
141 1 95.94 14.3884 9.95678 4.81351 2.96035 0.127475 -0.0568166 
119 1 95.94 15.8085 8.94692 7.26787 -7.02974 -7.10635 -0.406789 
122 1 95.94 1.37545 12.6136 5.05443 -2.36023 1.65409 5.65302 
128 1 95.94 3.24761 11.5134 6.94482 -4.49855 -1.68285 -4.13327 
123 1 95.94 1.61855 14.5571 7.22401 0.0381677 1.29338 -2.29171 
194 1 95.94 1.4093 12.4229 9.15609 -0.41125 2.32249 8.8752 
127 1 95.94 4.391 13.9015 6.95819 1.02249 -0.113736 -4.98086 
132 1 95.94 5.88002 11.973 7.07699 -4.61912 4.25423 7.53596 
131 1 95.94 7.34853 14.3575 7.1396 -0.259614 4.15146 0.059052 
136 1 95.94 8.30333 11.9851 7.25311 -6.91547 4.26787 -0.0677598 
1021 1 95.94 9.09959 14.7727 9.41672 7.98845 2.74863 -5.39556 
140 1 95.94 11.3932 11.5391 7.06085 6.08831 7.38732 0.229281 
135 1 95.94 10.1242 13.905 6.88987 2.44721 -3.57084 -9.04241 
206 1 95.94 10.3516 12.3634 9.26199 -0.0026074 4.02654 -6.48026 
142 1 95.94 15.94 12.418 5.06972 6.3108 -3.08264 7.3438 
210 1 95.94 13.0718 12.4638 9.18512 1.00691 -5.60758 4.44811 
138 1 95.94 13.3233 12.5554 4.72977 0.828255 2.66813 -2.65884 
139 1 95.94 13.0734 14.095 7.18873 -1.5876 -4.63048 4.82918 
144 1 95.94 14.2884 11.5292 7.21348 3.94836 1.36137 0.568247 
143 1 95.94 15.6695 14.2609 7.09403 1.22837 3.22101 -3.23226 
149 1 95.94 3.02314 0.0685289 9.4821 1.53236 -7.89765 -12.0412 
146 1 95.94 1.53369 2.7783 9.63924 9.62016 -5.67679 -1.01074 
150 1 95.94 4.25609 2.5966 9.96471 0.720358 -4.22276 0.137911 
152 1 95.94 2.91668 1.66228 11.9025 -4.62915 4.11648 1.98589 
218 1 95.94 1.23685 2.33727 13.8982 5.07859 -2.68391 0.654003 
222 1 95.94 4.00301 2.48376 13.997 -1.2728 7.66132 -9.07633 
153 1 95.94 6.05466 0.105785 9.49113 4.56299 0.978092 -2.46755 
229 1 95.94 8.57581 0.341247 14.0275 -0.786146 -3.76954 3.17381 
156 1 95.94 6.06329 1.3538 11.7326 0.792383 1.77467 -7.69406 
160 1 95.94 8.61917 1.67047 11.8415 -7.96349 -1.70252 -5.59511 
158 1 95.94 10.021 2.59586 9.61048 4.10155 -6.40753 10.1644 
164 1 95.94 11.5523 1.40283 11.9177 -2.14096 -6.86193 0.414011 
163 1 95.94 12.8078 3.47852 12.036 -7.33639 -4.62491 2.50559 
162 1 95.94 13.149 2.06718 9.55 -0.776641 1.84426 2.84821 
168 1 95.94 14.5771 1.22451 11.6246 11.3683 -2.18973 1.69076 
3604 1 95.94 17.2705 1.25153 11.6532 -0.71006 5.56175 0.874136 
147 1 95.94 1.3232 4.47313 11.9381 4.23586 -0.884319 -1.5492 
176 1 95.94 2.90462 6.91267 12.0888 1.62085 -4.47834 1.4822 
177 1 95.94 5.76762 5.12161 9.50617 6.6926 -1.29516 5.84761 
151 1 95.94 4.35021 4.18415 11.9475 -6.67465 1.9918 -4.03577 
155 1 95.94 7.09876 4.02024 11.9304 3.1311 6.5609 -2.77402 
180 1 95.94 5.71007 6.52659 12.0287 1.76063 -2.2351 -3.21621 
181 1 95.94 8.34602 4.80185 9.55967 1.15468 -3.10077 -6.96432 
257 1 95.94 11.6831 4.67587 14.0269 -3.95244 -1.9018 2.7951 
185 1 95.94 11.5866 4.77225 9.67122 -0.540005 6.3917 5.86467 
182 1 95.94 10.4238 7.27972 9.6724 2.04487 -0.505147 -2.34979 
184 1 95.94 8.83339 6.57951 11.5567 5.05893 4.72337 -1.02352 
159 1 95.94 10.1531 3.83024 11.845 -7.67948 -4.36818 0.518287 
188 1 95.94 11.888 6.2135 11.8322 -9.00304 2.96145 0.996372 
189 1 95.94 14.435 4.96046 9.86024 0.676465 1.44579 -1.06235 
186 1 95.94 13.3672 7.42434 9.54113 -4.16496 3.44246 5.81858 
3628 1 95.94 17.0109 6.71397 11.5384 -6.10531 -6.05695 -1.41174 
192 1 95.94 14.4132 6.30682 11.8276 -2.73393 7.02746 2.06521 
167 1 95.94 16.0045 3.85139 11.8597 -0.307658 9.93969 -1.96415 
170 1 95.94 1.25161 7.58892 9.46856 -1.23611 -2.57115 1.21894 
197 1 95.94 3.04253 10.1505 9.43781 -1.92298 1.74223 -1.49554 
171 1 95.94 1.28813 8.92395 11.8675 1.42214 0.583223 0.60207 
269 1 95.94 2.69987 10.0746 13.9337 -3.36952 -0.0775528 -0.556936 
174 1 95.94 4.38145 7.51148 9.54834 -6.32723 -8.74035 -3.58698 
175 1 95.94 4.74326 9.0312 11.795 3.02474 -2.40093 -3.89741 
178 1 95.94 7.26471 7.66097 9.66697 1.34663 6.1471 -0.216607 
179 1 95.94 7.70089 9.39099 11.7356 -3.49725 3.68104 4.42881 
209 1 95.94 11.7365 9.70482 9.45163 -0.635798 -6.69639 0.491149 
277 1 95.94 8.8964 10.122 13.9668 -1.17596 -0.453554 -4.12401 
183 1 95.94 10.5427 9.16848 11.5293 -5.3156 7.44792 3.75705 
254 1 95.94 10.4589 7.50286 13.6047 1.76894 -0.474884 -2.72388 
3649 1 95.94 17.1792 10.0171 9.51202 -5.57802 -0.133102 -5.88763 
191 1 95.94 15.9097 9.21205 12.0921 -3.84353 3.83599 1.17961 
187 1 95.94 13.3949 9.32389 11.9015 2.01544 -1.64334 -0.651788 
190 1 95.94 15.7848 7.63442 9.59057 -5.35738 -1.19351 9.49305 
213 1 95.94 14.3195 10.0183 9.48058 5.03835 5.07772 -6.05167 
285 1 95.94 14.5746 10.3556 14.0747 -0.868406 -11.7699 -2.27949 
1013 1 95.94 2.91291 14.7554 9.49198 1.58841 4.63991 -2.05544 
198 1 95.94 4.1234 12.368 9.6179 0.566869 -1.2219 -1.9895 
200 1 95.94 2.91446 11.5575 11.9666 2.91836 -8.40363 -1.5544 
1009 1 95.94 0.235429 14.9169 9.98099 6.02577 2.46239 4.80329 
195 1 95.94 2.07981 14.0462 11.9979 3.55554 1.03048 -10.2247 
196 1 95.94 0.084197 11.6495 11.4787 3.61032 0.0426591 -0.23166 
266 1 95.94 1.18918 12.4405 13.8414 -2.55697 11.347 -13.6712 
202 1 95.94 6.99523 12.5112 9.64099 -7.85637 3.01358 0.282429 
274 1 95.94 7.55484 13.0658 14.0341 -4.05752 -0.499565 2.66364 
203 1 95.94 7.52036 14.0572 11.6869 2.39189 -3.89147 3.5133 
199 1 95.94 4.63189 14.3084 11.8287 0.718726 0.708906 -4.97332 
204 1 95.94 6.07153 11.7181 12.2478 0.289483 5.18153 -4.95224 
1017 1 95.94 6.15829 14.8539 9.61965 1.00335 4.68943 -3.67455 
211 1 95.94 12.6697 14.5811 11.9386 6.724 3.96648 -1.4324 
208 1 95.94 8.77072 11.8397 11.5479 -4.42703 -0.789051 1.56811 
207 1 95.94 10.1406 13.9822 11.6101 9.23403 -3.78637 -2.28498 
212 1 95.94 11.7451 11.7703 11.8304 3.05283 1.50046 6.70919 
278 1 95.94 10.1622 12.823 14.0553 -4.03601 3.66829 8.74484 
215 1 95.94 15.7315 14.7648 11.808 1.41304 -6.56328 -1.49491 
214 1 95.94 16.2722 12.6436 9.45208 -1.6539 1.35113 -9.74573 
216 1 95.94 14.4851 11.9994 11.6595 5.10024 3.53962 3.64267 
224 1 95.94 2.84069 1.64586 16.5093 -7.1911 -0.683409 -11.5141 
290 1 95.94 1.0033 2.35957 18.4296 8.73707 -5.2929 -4.02672 
293 1 95.94 2.64596 0.14883 18.7353 6.52074 2.11836 -0.27169 
228 1 95.94 6.12238 1.76746 16.3606 -3.89892 -0.340443 -1.55159 
294 1 95.94 4.33119 2.5044 18.7343 1.69027 -2.0947 6.63469 
298 1 95.94 6.94515 2.60701 18.8374 -4.495 -2.20398 -0.564142 
297 1 95.94 5.72005 0.210021 18.7705 3.43695 7.87577 3.80806 
226 1 95.94 6.91546 2.61893 14.2719 2.75924 4.81717 7.0823 
232 1 95.94 8.85698 1.84081 16.3295 -3.36845 2.46333 1.15515 
236 1 95.94 11.8025 1.42846 16.4905 -5.83756 0.841357 3.52184 
302 1 95.94 9.88299 2.47297 18.5559 7.65388 4.88582 11.3811 
301 1 95.94 8.81773 0.271921 18.5449 3.02396 9.83009 2.6432 
230 1 95.94 10.3133 2.36354 14.4184 -8.48383 -5.86096 -3.9785 
306 1 95.94 13.3717 2.24776 18.8358 0.402901 3.58935 -3.91765 
240 1 95.94 14.8189 1.6062 16.5313 -0.791654 5.98881 -6.18364 
310 1 95.94 15.8675 2.07859 18.7022 2.51984 7.74779 -7.52513 
239 1 95.94 16.4185 3.69061 16.8475 -2.40446 -4.85996 -0.922718 
238 1 95.94 15.9257 2.10087 14.2305 0.472631 -1.78494 -8.15395 
234 1 95.94 13.1418 2.34885 14.414 6.05217 -7.68395 -4.24681 
219 1 95.94 1.89278 3.94902 16.4775 5.82939 -3.09938 -8.40694 
248 1 95.94 3.23911 7.11453 16.598 -1.36658 7.01138 0.48162 
313 1 95.94 0.117828 4.69187 18.7652 -1.36755 0.378671 -3.53911 
242 1 95.94 1.31211 7.13193 14.27 -1.89468 -2.52301 2.7651 
241 1 95.94 0.10553 4.79648 14.3149 5.77117 11.2852 -3.55989 
317 1 95.94 2.97955 4.57575 18.7936 -9.12468 -0.528375 1.25448 
314 1 95.94 1.47309 6.84373 18.6401 1.57618 0.673311 2.91975 
245 1 95.94 2.84299 5.03055 14.2651 -0.104952 1.97386 -3.88399 
223 1 95.94 4.61638 4.20505 16.6878 4.36396 8.42793 1.26255 
227 1 95.94 7.81739 4.24155 16.59 1.10776 1.84012 -2.55425 
252 1 95.94 6.15342 6.87207 16.7197 8.11 -0.972438 1.43176 
250 1 95.94 7.50443 7.40319 14.2659 1.00414 -3.95253 -7.09049 
249 1 95.94 5.74584 4.82645 14.56 -4.86175 4.34492 3.79087 
256 1 95.94 9.03365 6.5609 16.4288 0.455929 1.36421 2.31084 
231 1 95.94 10.5939 4.31541 16.3494 4.11893 -0.738764 1.6246 
260 1 95.94 11.9834 6.82383 16.2322 8.57144 -1.35715 -1.49926 
329 1 95.94 11.6012 5.17493 18.4131 -3.10672 -4.10687 3.54163 
326 1 95.94 10.3508 7.42923 18.7817 3.27932 -3.06693 9.8881 
253 1 95.94 8.93322 4.63811 14.2196 0.44167 5.22997 -6.82814 
235 1 95.94 13.4104 3.8517 16.5738 2.95998 3.38836 2.02449 
264 1 95.94 14.7164 6.37328 16.8177 -4.12267 -2.65273 -2.31421 
330 1 95.94 13.0322 7.33815 18.7864 -4.07116 4.49756 -7.95212 
333 1 95.94 14.5957 4.69244 18.7305 13.8273 -0.310009 -9.02809 
262 1 95.94 15.7585 7.46307 14.4102 -0.508063 -3.09063 -6.3911 
3697 1 95.94 17.3192 4.53042 14.313 0.846738 0.994633 -1.45264 
261 1 95.94 14.371 4.77087 14.2334 -5.22308 7.19508 -2.42599 
258 1 95.94 13.05 7.40152 14.2512 -4.72326 -8.40559 1.02815 
243 1 95.94 1.12959 8.68375 16.4922 4.95745 3.20461 -3.11662 
247 1 95.94 4.16112 9.59162 16.443 5.00637 -4.6454 10.6227 
341 1 95.94 2.54484 9.98111 18.5888 0.601117 1.70543 -0.404939 
251 1 95.94 7.39255 9.45253 16.4802 2.32443 -12.0597 -2.12146 
322 1 95.94 7.3933 7.74134 18.6829 -1.98355 -5.52808 -4.58699 
273 1 95.94 5.94744 9.84254 14.235 -5.20238 4.03732 -3.87222 
246 1 95.94 4.39782 7.90188 14.5191 2.57302 3.62923 -7.31246 
255 1 95.94 10.2988 9.17607 16.4631 -0.452441 11.4276 -4.38848 
281 1 95.94 11.5229 9.89119 14.2726 5.18389 -6.76238 -1.73118 
353 1 95.94 11.7369 9.72386 18.84 -2.29646 -6.20592 -7.76903 
259 1 95.94 13.5506 9.2904 16.6173 -1.87778 -8.57384 -3.94793 
263 1 95.94 16.1314 9.32773 16.373 7.11742 0.927087 4.81208 
334 1 95.94 15.8396 7.52726 18.8077 0.257816 -5.42269 -6.71249 
272 1 95.94 2.87982 11.94 16.5902 -3.49257 0.248943 -12.7415 
267 1 95.94 1.13313 13.8804 16.3051 -0.864262 1.54523 3.8275 
1085 1 95.94 2.82345 14.9949 14.2991 2.10718 0.641996 -7.38669 
338 1 95.94 1.31568 12.2141 18.697 -1.22174 -1.99972 -2.21216 
270 1 95.94 4.54349 12.7193 14.2345 -10.0936 3.81875 -3.34551 
271 1 95.94 4.3511 14.4078 16.6663 -3.80685 -1.78571 -4.28415 
276 1 95.94 5.93423 11.9027 16.5209 -4.35926 2.58492 0.09657 
275 1 95.94 7.66402 14.0732 16.4186 5.01893 2.57145 -6.44857 
1161 1 95.94 6.01239 14.8691 18.8576 -5.00372 -3.08449 -1.95205 
280 1 95.94 8.93743 11.718 16.2962 1.73744 -2.20908 1.2347 
284 1 95.94 11.8886 11.725 16.4949 7.83862 1.81585 -1.53493 
279 1 95.94 10.4256 14.1692 16.2463 -4.04367 -5.41788 -3.35018 
1165 1 95.94 8.86004 14.8722 18.5084 -3.09125 -7.37241 -0.0462667 
1097 1 95.94 11.5992 14.9824 14.2742 0.924355 -7.37791 4.28476 
286 1 95.94 15.9796 12.8486 14.2633 10.2568 -2.6886 -0.912838 
282 1 95.94 13.3967 12.6744 14.1586 -2.94846 -9.25069 -4.22214 
354 1 95.94 13.0421 12.5254 18.8221 5.82712 -0.0522655 0.280563 
283 1 95.94 13.3086 14.0449 16.2662 -5.12336 2.98154 -10.5346 
288 1 95.94 14.7466 11.8986 16.5998 4.50289 9.0211 -7.67757 
287 1 95.94 15.9976 14.5524 16.4057 5.47705 4.11235 7.49837 
296 1 95.94 2.84227 1.75893 20.6864 -0.398662 -1.46597 -1.99506 
362 1 95.94 1.28011 2.12948 23.5479 3.68489 4.15482 -8.10553 
366 1 95.94 4.09268 2.3884 23.4216 -4.14441 2.26913 -4.40751 
300 1 95.94 5.50231 1.62256 21.0713 -2.37235 -5.814 -0.824302 
304 1 95.94 8.50719 1.78337 21.044 0.437002 5.19569 4.19193 
370 1 95.94 7.067 2.42036 23.3733 -1.763 -2.09628 5.45632 
377 1 95.94 11.1188 0.343298 23.5688 2.65242 -1.89885 -2.85473 
308 1 95.94 11.5434 1.97277 21.0298 2.14746 0.96587 -10.0432 
378 1 95.94 12.8804 2.56268 23.4812 0.445363 -4.55098 1.80714 
374 1 95.94 9.83693 2.56841 23.5624 -0.364265 0.526528 3.48269 
312 1 95.94 14.4484 1.6649 21.2212 -2.63843 -3.21986 3.31411 
382 1 95.94 15.8049 2.68574 23.4952 3.49728 -0.388887 -2.57181 
381 1 95.94 13.7112 0.0106537 23.3792 3.64016 -1.97883 -0.904444 
3748 1 95.94 17.1794 1.76707 21.2907 3.37602 -3.57259 -1.51106 
316 1 95.94 0.203826 6.61815 20.8222 -3.184 -1.00842 -2.96921 
291 1 95.94 1.28331 3.92069 21.0271 -2.20224 -7.45263 3.87037 
320 1 95.94 3.03872 6.41138 21.1639 3.62584 -8.45066 3.07643 
295 1 95.94 4.23299 4.29723 21.1434 4.66173 5.71313 -1.18068 
386 1 95.94 1.69508 7.12532 23.311 5.08452 -0.107942 1.18336 
389 1 95.94 2.51782 4.74447 23.5123 -3.87494 0.345919 -8.11458 
321 1 95.94 5.8609 5.1824 19.0341 2.77195 2.27016 5.47547 
299 1 95.94 7.20137 4.11375 20.986 6.43058 6.06619 -0.129812 
324 1 95.94 5.89802 6.51501 21.1191 4.66639 -1.20718 -2.62602 
397 1 95.94 8.53581 4.65446 23.266 5.38955 -11.4902 -5.30072 
393 1 95.94 5.63689 5.11122 23.5173 3.47116 3.0149 -7.24114 
325 1 95.94 8.80615 4.97759 18.9758 -2.97936 0.199868 11.5507 
328 1 95.94 8.79451 6.51307 21.234 8.59862 -1.64877 7.54454 
303 1 95.94 10.306 3.92535 21.2703 -8.5055 -5.90955 0.245321 
332 1 95.94 11.6238 6.50772 21.4122 -4.35029 -1.57102 -3.697 
401 1 95.94 11.2596 5.0816 23.2517 5.49707 5.40831 3.02158 
398 1 95.94 10.0688 7.17929 23.447 1.90514 0.307226 -1.82384 
307 1 95.94 13.1222 4.1851 20.8736 -3.92552 8.9231 3.40041 
311 1 95.94 15.5833 4.30968 20.9313 -1.55807 -0.781092 6.75626 
336 1 95.94 14.5246 6.57679 21.1789 0.0559847 6.70837 0.275257 
406 1 95.94 15.966 7.19809 23.5506 -6.36092 5.35546 7.4688 
402 1 95.94 13.2655 7.39586 23.4415 -0.432928 -0.297345 -6.92145 
315 1 95.94 1.0452 8.65707 21.1882 -1.04522 3.42626 6.73791 
409 1 95.94 0.0315794 9.83738 23.4458 4.50451 -2.72673 5.96709 
345 1 95.94 5.887 9.98768 18.921 8.74503 -3.38262 7.56211 
318 1 95.94 4.36623 7.59586 18.9634 3.23449 -7.9633 8.12574 
319 1 95.94 4.4752 9.14489 21.1657 -8.69326 -0.371953 6.14304 
323 1 95.94 7.19473 8.86661 21.1695 -0.798892 -6.88384 10.1096 
349 1 95.94 8.97572 9.70032 18.9933 1.01511 2.13782 4.72821 
327 1 95.94 10.3437 9.11557 21.1292 5.16812 -0.716819 0.904705 
425 1 95.94 11.9268 9.85444 23.3318 -5.92788 2.90622 0.356258 
352 1 95.94 8.66744 11.2255 21.0736 -1.16273 -2.95649 4.54051 
357 1 95.94 14.8104 10.2989 18.9847 4.2251 2.86981 -3.90028 
331 1 95.94 13.1791 9.16607 21.0835 2.9525 -0.386436 -0.771532 
335 1 95.94 15.9726 9.0789 21.5249 -11.753 0.471134 -0.558475 
1157 1 95.94 2.89446 14.7188 18.9843 3.75522 -0.871052 5.92796 
1225 1 95.94 0.215189 14.6464 23.4793 4.50424 -1.74785 -1.36733 
339 1 95.94 1.85298 13.9317 21.1722 -1.87247 -3.39394 -1.55438 
344 1 95.94 2.7605 11.4814 21.1626 -3.44408 3.57763 5.81023 
1153 1 95.94 0.227918 14.9054 18.9354 2.12726 -3.3913 -4.84693 
340 1 95.94 -0.00122217 11.6581 21.1958 0.824935 -3.13229 4.30191 
342 1 95.94 4.44001 12.4726 19.2878 -3.32226 4.5499 3.5493 
346 1 95.94 7.41796 12.2918 18.9225 8.73616 4.47275 -4.771 
343 1 95.94 4.43023 14.0289 21.5197 -0.752377 -0.258375 -1.16197 
348 1 95.94 5.71147 11.5636 21.445 -6.80684 -4.68684 -1.16736 
347 1 95.94 7.12817 14.0352 21.1557 0.767788 2.23785 3.34647 
418 1 95.94 7.32026 12.4155 23.517 1.41337 -0.772296 2.8427 
350 1 95.94 10.402 12.6584 19.0495 -6.8884 -0.852775 -5.12426 
351 1 95.94 9.93846 14.1837 21.2084 2.58246 10.6931 3.46703 
356 1 95.94 11.4545 11.7394 21.2769 1.47058 0.0455465 -2.50661 
355 1 95.94 12.5055 14.3905 20.8308 4.07485 -3.36156 -1.72538 
1237 1 95.94 8.83719 14.9331 23.5586 3.0163 -2.22188 3.65813 
1241 1 95.94 11.5922 14.9098 23.1584 4.39036 -3.07345 -1.33792 
426 1 95.94 13.0346 12.3924 23.5319 5.31223 -3.6748 3.1772 
358 1 95.94 15.9948 12.9229 19.1802 -4.09197 0.739836 4.86386 
359 1 95.94 15.6811 14.2702 21.2284 1.18075 -0.801968 0.63891 
360 1 95.94 14.6432 12.0675 21.4303 -14.8865 -7.28067 0.276165 
434 1 95.94 1.33034 2.41301 28.1042 2.90513 1.49251 -0.858065 
364 1 95.94 0.325281 1.2917 25.8317 3.96311 -1.39245 5.95728 
368 1 95.94 2.86993 1.41276 25.9684 -1.87034 -3.13801 10.3677 
438 1 95.94 4.21702 2.21974 28.2509 -6.27018 6.18685 2.84881 
372 1 95.94 6.05163 1.47491 25.5545 1.77926 -7.36382 -2.33626 
442 1 95.94 7.41024 2.77072 27.8969 3.92468 -5.02201 -0.871712 
449 1 95.94 11.3949 0.0555215 28.171 3.29263 2.57202 -2.27022 
446 1 95.94 10.1972 2.48778 28.1299 -0.610379 7.12864 5.32048 
376 1 95.94 8.66962 1.87422 25.9592 -1.29117 5.0235 -6.34565 
380 1 95.94 11.7155 1.71686 25.9697 -0.94192 -5.94759 -3.03242 
454 1 95.94 15.9582 2.47466 28.1543 -10.1214 -4.66316 -4.23663 
3820 1 95.94 17.1871 1.90498 25.9259 -9.76729 -4.94336 -6.49117 
384 1 95.94 14.2841 1.50489 25.9548 -8.51957 -0.953738 3.84293 
3817 1 95.94 16.694 0.0191766 23.6334 -3.62922 -7.25692 -0.000798851 
453 1 95.94 14.0058 0.00399541 28.1248 -4.689 5.94066 -3.38299 
363 1 95.94 1.36761 3.81759 25.8744 3.91714 -0.498096 3.97955 
367 1 95.94 4.21137 3.83307 25.9286 0.104861 0.0847419 3.84512 
392 1 95.94 2.98095 6.16119 26.2584 1.2019 -8.47885 8.64254 
461 1 95.94 3.05652 4.31451 28.2762 8.84601 5.68596 11.7462 
371 1 95.94 7.04549 4.27371 26.0558 3.45509 -9.50186 -1.58015 
396 1 95.94 5.61835 6.39011 25.9825 5.64088 2.22617 -0.999339 
400 1 95.94 8.49802 6.62704 25.9029 4.58315 -6.66094 -9.76099 
465 1 95.94 5.60946 4.93281 28.2612 5.05405 6.81783 5.88611 
466 1 95.94 6.95026 7.37189 28.1615 -2.00588 7.06764 1.23465 
375 1 95.94 10.1838 4.45753 25.9707 -0.517151 4.18038 -6.59677 
404 1 95.94 11.5223 6.65785 25.8229 4.23553 -4.52506 -4.40832 
473 1 95.94 11.6588 5.05287 28.1806 -0.471154 0.316701 -8.53002 
379 1 95.94 13.2037 4.16459 26.2035 -3.14888 -1.37497 -0.902491 
405 1 95.94 14.0528 4.87642 23.599 -3.51792 2.31381 1.47312 
383 1 95.94 15.6598 4.39461 26.056 -5.25467 0.249454 -2.19237 
408 1 95.94 14.6656 6.64923 25.972 0.0168994 -4.02769 0.721729 
412 1 95.94 0.728006 10.9962 26.0313 3.56896 2.56877 7.69181 
390 1 95.94 4.24248 7.7263 23.7148 6.92743 5.96384 -0.0657665 
413 1 95.94 3.05276 10.2295 23.7147 -4.09813 1.52797 3.47612 
387 1 95.94 1.83602 8.6408 25.9468 -0.784326 8.98925 12.6579 
481 1 95.94 0.139301 9.95073 28.2595 -6.82715 5.42324 -0.97436 
417 1 95.94 5.75821 9.72749 23.8089 -3.33973 -3.11179 -1.70465 
394 1 95.94 7.16555 7.76975 23.9168 1.32874 -8.78078 -0.980365 
391 1 95.94 4.42574 9.07128 26.3698 2.71305 -9.5506 0.387216 
395 1 95.94 7.28661 9.05421 26.4167 -14.2975 3.48912 -2.84996 
421 1 95.94 8.75133 9.95833 23.7333 -7.11383 2.90216 -2.20234 
399 1 95.94 10.3414 9.01376 25.664 -6.82204 3.99342 0.887806 
470 1 95.94 10.0403 7.51665 27.7452 -4.05961 0.096638 5.83754 
497 1 95.94 11.6407 9.67259 28.2404 1.74016 -1.54587 -4.13608 
493 1 95.94 8.8642 10.1133 28.0015 1.12383 6.68627 -3.21861 
429 1 95.94 14.6223 10.0459 23.7522 7.58992 3.80988 -0.322986 
403 1 95.94 13.1365 9.06693 25.8938 3.68833 4.35262 -0.112002 
407 1 95.94 15.7362 9.19137 25.9407 1.89114 -10.3422 3.59891 
474 1 95.94 13.3435 7.85729 28.016 1.56152 1.7498 -4.52935 
501 1 95.94 14.314 10.2941 28.3025 -6.8994 0.715605 -5.75086 
1301 1 95.94 2.937 14.8867 28.235 7.84739 0.137614 3.64564 
414 1 95.94 4.18951 12.6979 23.8067 3.51276 -6.55706 7.40106 
411 1 95.94 1.25245 13.9613 26.232 3.29613 0.0769748 7.218 
416 1 95.94 3.26549 11.4183 25.796 0.0575198 -9.51892 7.59038 
410 1 95.94 1.52258 12.4358 23.8293 -4.38457 1.73629 -5.85631 
1229 1 95.94 3.18038 14.959 23.7535 3.24811 10.47 -3.65141 
1233 1 95.94 6.23648 14.7443 23.7276 -5.04184 -1.20824 -6.01162 
415 1 95.94 4.35729 14.3901 26.3025 -0.37007 -0.391975 -0.215151 
420 1 95.94 6.00475 11.7103 25.9942 -4.26318 4.1498 3.11411 
419 1 95.94 7.35104 14.569 26.0515 -4.18977 7.1802 -10.3469 
490 1 95.94 7.46282 12.4307 28.2481 5.26355 -3.41917 -0.1629 
1309 1 95.94 8.62727 14.8248 28.2461 0.908134 -2.10075 -9.5303 
423 1 95.94 10.5313 14.2075 25.8361 0.584031 -3.29621 -0.78398 
422 1 95.94 10.0634 12.2495 23.5932 2.17652 -0.820513 0.390377 
498 1 95.94 12.8828 12.587 27.9789 -3.47292 -3.23964 0.130614 
428 1 95.94 11.653 11.5351 25.7444 0.467662 -6.63761 -7.50412 
424 1 95.94 8.7408 11.675 25.8703 1.94885 1.05181 0.950154 
432 1 95.94 14.7138 11.7737 26.0628 5.96288 -1.27381 3.42752 
427 1 95.94 13.1585 14.4347 25.953 -4.12415 2.0398 -9.63683 
431 1 95.94 15.9621 14.3552 25.9163 -10.7813 6.88892 -2.26029 
430 1 95.94 16.0564 12.6472 23.8088 2.39372 7.49658 2.63974 
440 1 95.94 2.66931 1.62859 30.1638 6.55777 -4.20778 -4.47422 
510 1 95.94 4.24868 2.22578 32.8015 -4.56352 -9.0105 -0.336274 
505 1 95.94 -0.00379096 0.0550585 32.8844 3.30898 8.99581 -6.46012 
436 1 95.94 0.166157 1.83146 30.4275 -5.16282 -3.1844 -10.9324 
506 1 95.94 1.62271 2.6257 32.6318 2.0487 1.26397 -4.69858 
444 1 95.94 5.58081 1.59208 30.4241 5.95414 -4.37227 -1.61364 
448 1 95.94 8.59366 1.67452 30.2834 1.57751 3.47695 -1.93881 
514 1 95.94 7.11163 2.17768 32.6327 -4.13904 5.37849 -3.35834 
517 1 95.94 8.78792 0.0687081 32.6134 2.80532 2.54537 -3.6656 
452 1 95.94 11.5429 1.84208 30.757 -2.63011 3.1658 5.49496 
521 1 95.94 11.398 0.420617 32.9742 -10.5638 -1.51283 3.10328 
518 1 95.94 9.91312 2.43402 32.9296 -0.830866 5.34165 1.84635 
450 1 95.94 12.8518 2.19406 28.592 2.38666 3.27027 -2.5822 
456 1 95.94 14.4991 1.57184 30.7728 -1.40586 2.04591 6.5326 
522 1 95.94 13.231 2.51369 32.9353 -0.0234509 -1.63379 -4.22553 
462 1 95.94 4.18167 7.39104 28.521 4.65382 6.18166 0.945342 
458 1 95.94 1.34679 7.45498 28.4042 5.63254 5.28824 1.70733 
435 1 95.94 1.48817 4.72774 30.2769 -0.469729 4.66747 6.61326 
464 1 95.94 2.80477 6.74271 30.6381 8.65157 -6.37126 4.51559 
439 1 95.94 3.8721 4.04461 30.5723 -0.424408 1.46491 -4.00975 
533 1 95.94 3.02988 5.26502 32.7401 2.73103 1.01403 7.70925 
530 1 95.94 1.36524 7.27207 32.7432 -3.82323 6.31567 -5.46719 
469 1 95.94 8.5855 4.99314 28.3585 4.18096 7.8378 4.60185 
443 1 95.94 7.22446 3.87121 30.3023 1.96171 1.15037 4.72617 
468 1 95.94 5.87459 6.40269 30.9473 4.03813 -5.8736 -4.05051 
472 1 95.94 8.58134 6.52055 30.1819 -3.97592 1.61448 1.35573 
534 1 95.94 4.35018 7.43217 32.9687 0.0878034 -1.68247 2.85902 
541 1 95.94 8.30907 5.09086 32.8488 2.52886 -11.308 4.23349 
447 1 95.94 9.95568 4.44519 30.5094 -6.33303 2.94057 7.13405 
476 1 95.94 11.4521 6.80165 30.4742 -8.33378 4.12876 -1.6059 
545 1 95.94 11.5971 4.86341 32.764 8.16929 0.164568 -7.11235 
451 1 95.94 13.044 4.39201 30.8382 4.85218 2.11507 0.898472 
455 1 95.94 15.9054 4.01834 30.6391 -4.49024 -0.81446 -4.46421 
480 1 95.94 14.4801 6.71162 30.5664 0.000996307 -2.59658 -3.84026 
477 1 95.94 14.395 4.97829 28.5698 -3.09295 1.27518 2.02779 
478 1 95.94 16.0203 7.16052 28.3408 -7.95655 3.66771 3.43553 
3913 1 95.94 17.1244 4.93727 28.3961 1.81896 -5.53027 -2.63771 
3916 1 95.94 16.9254 6.94325 30.7475 -2.62304 -2.22568 -0.86433 
485 1 95.94 2.8092 9.96658 28.3323 -5.97873 -3.31033 -6.62 