ITEM: TIMESTEP
5000
ITEM: NUMBER OF ATOMS
1024
ITEM: BOX BOUNDS pp pp pp
-4.5279335242991436e-03 2.5617055933524192e+01
-4.5279335242991436e-03 2.5617055933524192e+01
-4.5279335243080254e-03 2.5617055933524192e+01
ITEM: ATOMS id type mass x y z vx vy vz 
2 1 95.94 1.15413 1.69682 1.34734 -0.633757 6.53509 0.484722 
147 1 95.94 3.10344 3.17908 3.16704 6.86752 2.90724 -3.22673 
19 1 95.94 3.24721 3.28308 25.5116 0.959577 -3.3928 -0.0689005 
145 1 95.94 0.0436673 3.38293 3.0437 -4.4388 0.478392 7.4189 
129 1 95.94 25.2784 0.179858 3.2422 -3.43557 -4.91633 5.90305 
1 1 95.94 0.119304 25.5281 25.4218 -1.59525 2.95919 -5.86249 
4 1 95.94 4.77848 1.81441 1.28803 -4.69147 -4.6683 -1.81909 
149 1 95.94 6.24951 3.21694 2.7737 -0.248017 3.48474 -4.96462 
6 1 95.94 7.98183 1.41796 1.61748 -1.60701 -0.244264 -5.53418 
151 1 95.94 9.77512 3.01076 3.34796 -1.52539 -8.21154 -2.88219 
135 1 95.94 9.81365 25.5365 2.88285 -5.14562 1.79117 3.63523 
8 1 95.94 11.2157 1.84416 1.3585 -2.88451 -0.750186 4.75204 
10 1 95.94 14.4156 1.48103 1.41308 -7.3087 -14.4574 2.60685 
153 1 95.94 12.7426 3.35298 2.99432 3.39073 4.962 1.47166 
137 1 95.94 12.7249 0.0128796 2.6341 -0.528982 -3.38343 -6.91453 
25 1 95.94 13.0403 3.43928 25.6394 5.85121 4.32584 8.68732 
9 1 95.94 13.005 25.4606 25.2467 -7.71393 -5.31509 -2.2633 
12 1 95.94 17.6309 1.5224 1.48657 1.91995 2.80179 -0.867943 
155 1 95.94 15.9373 3.14046 3.09295 0.797327 -5.09007 2.30535 
139 1 95.94 15.8855 0.1407 3.23675 0.780722 -2.79808 -4.11007 
14 1 95.94 20.8405 1.63227 1.78058 -0.484237 -3.45902 -7.98505 
157 1 95.94 19.1498 3.24011 3.07302 3.35006 -3.51762 -0.354027 
141 1 95.94 19.2231 0.187902 3.14687 2.44176 -6.21562 3.86637 
17 1 95.94 0.211029 3.4969 25.5167 -2.60456 -1.18145 0.163299 
16 1 95.94 23.9031 1.68914 1.45398 -2.01513 -4.63128 -9.98814 
159 1 95.94 22.6378 3.23066 3.35758 -1.05745 -1.67937 8.21448 
143 1 95.94 22.4188 25.6105 3.37889 4.81379 -0.971019 0.724448 
18 1 95.94 1.74406 4.87097 1.57743 -10.8099 -5.36769 5.99621 
163 1 95.94 3.38144 6.31666 3.27164 -1.2039 -2.49462 10.3278 
20 1 95.94 4.87905 5.06739 1.38177 -3.0469 3.72226 2.57955 
165 1 95.94 6.25331 6.48101 3.2565 -1.1125 4.09847 1.32256 
22 1 95.94 7.75779 4.86813 1.8105 8.91611 7.18748 -4.2255 
167 1 95.94 9.56078 6.41555 2.92455 -1.05064 7.29508 5.12195 
39 1 95.94 9.90285 6.7028 25.5429 -5.4281 -5.32083 -3.26804 
24 1 95.94 11.1157 4.99195 1.42787 -0.172636 3.58562 7.42129 
169 1 95.94 12.9567 6.27336 3.08694 -6.7389 -1.58246 4.124 
41 1 95.94 12.7408 6.88109 0.024255 -6.71735 1.51324 0.839112 
26 1 95.94 14.8647 4.86719 1.44264 4.64044 -0.453716 1.10309 
28 1 95.94 17.7162 4.95684 1.44321 9.53755 -6.13512 2.74499 
171 1 95.94 15.7618 6.38876 3.35737 -7.93653 1.85201 -2.52546 
30 1 95.94 20.8621 4.94603 1.79189 -5.95339 2.88904 3.81652 
173 1 95.94 19.037 6.23784 3.41674 0.629315 5.00531 1.32242 
161 1 95.94 0.0692568 6.30327 3.22269 -1.97016 -1.22263 4.41293 
32 1 95.94 23.9309 4.76416 1.44594 5.12959 -1.71863 4.36427 
175 1 95.94 22.4309 6.73341 2.94732 1.59696 3.17459 4.76408 
34 1 95.94 1.70784 8.15482 1.66694 0.672418 -6.0866 -1.35374 
179 1 95.94 3.36469 9.60951 3.40783 -3.00827 0.855132 7.14158 
51 1 95.94 3.20802 9.59817 0.0329899 -5.07114 6.53458 -3.41626 
177 1 95.94 0.170706 9.89313 3.34608 -11.0277 0.522104 -9.23637 
36 1 95.94 4.72361 7.93617 1.54807 8.3482 10.0485 2.38465 
181 1 95.94 6.56942 9.54092 3.36855 2.93695 0.680384 1.51601 
38 1 95.94 7.91428 7.68752 1.58319 -2.86272 4.06881 7.19963 
183 1 95.94 9.73652 9.57212 3.00409 2.7378 -0.210524 4.29828 
40 1 95.94 11.2914 7.72244 1.99701 -2.17395 -0.521391 -0.497111 
185 1 95.94 12.8836 9.59978 3.14505 7.78508 7.35928 4.5217 
57 1 95.94 12.7354 9.66517 0.120665 10.0725 0.791955 7.33055 
42 1 95.94 14.5125 7.9748 1.55379 2.36229 8.2204 2.22229 
44 1 95.94 17.6295 8.042 1.68636 -2.02208 9.64685 -2.41 
187 1 95.94 16.07 9.55146 3.3495 -3.58305 0.103717 -1.70592 
59 1 95.94 15.9224 9.39411 0.147857 -6.96666 -3.4468 5.34767 
46 1 95.94 21.0461 8.08737 1.49556 -4.06382 -2.65475 0.381958 
189 1 95.94 19.3328 9.60296 3.26686 1.66335 -1.56852 0.0491805 
61 1 95.94 19.3407 9.38407 0.0639676 -2.42474 -2.72335 -8.14267 
48 1 95.94 24.251 7.94477 1.30871 -5.14699 8.39875 3.53211 
191 1 95.94 22.5399 9.46631 3.14853 3.77117 -2.96036 3.26807 
50 1 95.94 1.76383 11.2906 1.68898 -3.33322 1.49479 -1.96211 
195 1 95.94 3.41531 12.4877 3.52404 3.67774 1.15491 -4.47583 
66 1 95.94 1.67945 14.3429 1.64366 -0.986215 6.05922 -8.412 
65 1 95.94 0.449335 12.4123 0.20996 7.58255 -1.86708 -3.23223 
52 1 95.94 5.112 11.3685 1.85605 -9.17704 8.31615 -3.27975 
69 1 95.94 6.31128 12.8233 25.5024 -12.7392 3.78713 -0.444019 
197 1 95.94 6.41972 12.9078 3.33006 4.9893 -3.15873 0.221186 
68 1 95.94 4.83793 14.2554 1.98758 1.74553 1.67297 -4.44624 
54 1 95.94 7.93015 11.2367 1.58552 3.35922 -3.77508 1.21425 
199 1 95.94 9.72075 12.5758 3.11401 4.26496 6.48776 -3.89086 
70 1 95.94 7.87317 14.3372 1.43441 3.3497 -2.62546 -0.900135 
58 1 95.94 14.6088 10.862 1.81253 -0.398906 -0.0427702 0.521191 
56 1 95.94 11.6209 11.2933 1.82101 5.29768 -2.68797 -0.823784 
201 1 95.94 13.0575 12.6579 3.34933 0.905183 -3.00852 -5.3478 
72 1 95.94 11.3432 14.2849 1.78989 -5.13408 -4.02965 -4.14681 
74 1 95.94 14.468 14.3124 1.82019 5.87374 -1.06463 1.41014 
60 1 95.94 17.4897 11.1342 1.79812 -3.85203 9.30204 3.09359 
203 1 95.94 15.948 12.6344 3.41961 -3.73541 -0.0663797 -0.42522 
62 1 95.94 20.8248 11.0882 1.53855 4.6157 -1.13348 -0.111304 
205 1 95.94 19.1676 12.745 3.13052 -1.64873 2.37708 7.71727 
78 1 95.94 20.9181 14.3025 1.56208 2.86985 4.38129 -3.62084 
77 1 95.94 19.0324 12.6318 25.6124 -1.78661 -2.60813 -0.773138 
193 1 95.94 -0.0315802 12.9654 3.20378 -6.69145 -2.52429 7.78107 
64 1 95.94 24.3414 11.3534 1.8778 -0.034978 -7.56815 -6.53386 
207 1 95.94 22.4293 12.6235 2.90658 9.31986 -0.981116 -3.4332 
79 1 95.94 22.7633 12.7563 0.151526 -2.62598 -2.91262 -4.95331 
82 1 95.94 1.8269 17.8392 1.8193 -2.75847 2.03242 4.17631 
211 1 95.94 3.16022 15.5259 3.55364 -3.87167 -4.42213 -4.39131 
84 1 95.94 4.77935 17.5221 1.91445 -1.52992 6.18847 -2.65807 
213 1 95.94 6.4638 15.8742 3.47216 -1.89945 8.26042 5.07 
86 1 95.94 8.03878 17.7573 1.51266 2.4017 -0.768468 6.09159 
215 1 95.94 9.68961 15.8665 3.32022 1.39707 6.21794 1.41484 
88 1 95.94 11.2694 17.8805 1.43611 -11.0543 3.85432 6.14066 
90 1 95.94 14.5889 17.5739 1.57193 -8.05424 -0.176319 -0.749222 
217 1 95.94 12.4244 16.0603 3.0454 -0.904066 5.22359 0.99328 
89 1 95.94 12.6321 16.0028 25.5031 5.57693 -7.62018 1.58199 
76 1 95.94 17.6132 14.3884 2.00479 -4.22817 2.09479 5.15865 
92 1 95.94 17.337 17.5766 1.98227 -6.43142 5.53851 5.10152 
219 1 95.94 16.0651 15.7403 3.37934 -8.50425 -15.3787 4.39533 
94 1 95.94 21.1058 17.6069 1.52309 1.63462 2.87611 6.59995 
221 1 95.94 19.1443 16.4043 3.28756 1.23881 -4.57751 9.07955 
80 1 95.94 24.2528 14.2356 1.31395 -2.28776 3.94953 -1.35762 
209 1 95.94 0.288877 16.0395 3.10365 3.35345 2.58029 3.82446 
96 1 95.94 24.3307 17.8173 1.75834 0.278918 -1.70613 3.17915 
223 1 95.94 22.5039 15.996 2.95062 2.77804 -1.42348 2.4013 
95 1 95.94 22.6433 15.8666 25.4908 8.14089 0.313775 -8.06279 
98 1 95.94 1.58787 20.5803 1.45293 -0.633999 -3.22647 6.20578 
227 1 95.94 3.31581 19.4202 3.36341 1.2002 3.718 4.13542 
100 1 95.94 4.53505 20.9974 1.98702 2.06139 4.40692 0.745276 
229 1 95.94 6.31406 19.4312 2.80234 -8.09798 -4.88276 1.94239 
101 1 95.94 6.58121 18.9401 25.554 -2.77898 5.69313 0.665838 
102 1 95.94 8.13502 20.7154 1.42995 -0.0918278 6.33087 1.77273 
231 1 95.94 9.67525 19.3112 2.9781 5.07973 0.902977 -1.96351 
104 1 95.94 11.2259 20.7865 1.17825 -3.42499 -11.4951 7.85106 
106 1 95.94 14.2212 20.7891 1.54659 0.735778 -2.11028 1.75333 
233 1 95.94 12.8063 19.1949 3.11774 -0.614731 0.15502 -2.13027 
105 1 95.94 12.9796 19.1639 25.5898 -0.884866 -2.879 4.45625 
107 1 95.94 15.8012 19.1169 0.0680702 -3.00318 10.9312 -10.0561 
108 1 95.94 17.426 20.9786 1.83933 -2.83419 6.00867 -10.8028 
235 1 95.94 15.7603 19.1064 3.30226 -2.08374 -2.69954 4.40886 
110 1 95.94 20.6366 20.9693 1.95828 -2.2336 -0.356552 -1.77056 
237 1 95.94 18.9596 19.4116 3.19326 3.68554 -1.29192 5.99843 
109 1 95.94 18.9592 19.3191 0.159518 -1.75902 -1.42562 0.186045 
97 1 95.94 25.5529 19.205 0.253553 -4.89386 0.686357 -0.239487 
225 1 95.94 0.238424 19.4868 3.41517 -1.37003 -1.80941 5.65382 
112 1 95.94 24.0898 21.0017 1.73533 -7.92363 4.05327 3.22432 
239 1 95.94 22.5302 19.2051 3.28451 -5.32098 1.16479 -7.97492 
131 1 95.94 3.00364 0.243849 3.16883 6.49185 0.888111 7.48584 
114 1 95.94 1.42245 23.8849 1.69902 -0.196919 -0.0800098 -5.33396 
243 1 95.94 2.68974 22.1944 3.29839 -1.84648 2.50606 3.08954 
133 1 95.94 6.36181 0.0759112 2.87539 -0.176958 -5.15113 -6.10128 
116 1 95.94 4.51137 24.2007 1.62713 6.05909 -0.710464 6.7291 
245 1 95.94 6.68127 22.4844 3.15931 1.53718 -4.1506 -4.62625 
117 1 95.94 6.40606 22.6407 0.117256 -8.78744 2.66566 3.76426 
118 1 95.94 8.29113 23.7042 1.51718 -5.94736 0.968308 -2.20369 
247 1 95.94 9.68502 22.4969 3.25762 -0.453007 -3.61003 -0.519175 
7 1 95.94 9.49174 25.312 25.6048 -4.67182 -3.1229 -2.21576 
119 1 95.94 9.88669 22.5445 25.3602 -8.4956 -2.967 -2.88816 
120 1 95.94 11.5279 23.7645 1.43256 -6.34508 0.976428 -0.303801 
249 1 95.94 12.8445 22.1514 3.25664 1.36214 -8.39659 -5.60407 
122 1 95.94 14.3635 23.8249 1.4621 -3.68944 -0.655604 -5.53709 
121 1 95.94 12.9918 22.3851 25.2867 2.94479 -1.65802 6.6893 
124 1 95.94 17.4169 24.1543 1.46106 9.49714 7.75337 0.777655 
251 1 95.94 16.0767 22.4403 3.06204 -7.22418 -3.61966 4.16132 
123 1 95.94 15.8952 21.9642 0.0203556 -0.654933 -7.65841 5.38513 
126 1 95.94 21.0115 24.2447 1.67334 -7.48749 2.3494 -6.32582 
253 1 95.94 18.9196 22.7087 3.16753 -6.05212 3.09757 3.8372 
13 1 95.94 19.4328 0.00391893 0.00950036 0.128697 0.219261 -0.585488 
125 1 95.94 18.8941 22.6265 0.23854 -3.1515 5.97371 -11.8704 
241 1 95.94 25.4573 22.6174 3.55742 -6.56157 -2.1933 -7.3411 
128 1 95.94 24.141 23.9335 2.02846 -1.87911 8.29577 -8.0864 
255 1 95.94 22.4133 22.3877 3.27056 5.69628 0.897266 -0.796388 
130 1 95.94 1.54514 1.75389 4.67005 1.05947 0.497359 -7.19901 
275 1 95.94 3.40863 3.27928 6.23943 -1.40722 -5.64395 -0.778207 
273 1 95.94 0.110531 3.34678 6.36044 6.06019 -2.44704 -3.44199 
257 1 95.94 25.5553 25.5591 6.53626 -2.70648 -5.86325 0.427443 
132 1 95.94 4.77986 1.75903 4.45469 -2.09225 3.91955 4.75017 
277 1 95.94 6.29149 3.35756 6.40348 0.302758 -0.930776 1.72408 
134 1 95.94 8.04658 1.58424 4.60348 8.89851 8.3893 -7.76005 
279 1 95.94 9.50627 2.90574 6.46893 -3.10406 -0.314033 -7.36129 
263 1 95.94 9.37638 25.199 6.3694 -9.54278 -0.130121 -0.841056 
136 1 95.94 11.2592 1.51003 4.7418 -2.703 -6.86735 -0.599139 
281 1 95.94 12.809 3.10612 6.21594 -7.60687 2.45448 -5.35119 
138 1 95.94 14.2775 1.49277 4.40112 -2.18015 -1.17265 -1.80263 
140 1 95.94 17.8886 1.64432 4.58656 5.33767 -4.64555 6.8126 
283 1 95.94 15.3005 3.24037 6.13065 0.459949 8.42152 1.29357 
267 1 95.94 16.1873 0.331817 6.10615 6.80225 -5.01745 -4.45892 
142 1 95.94 20.8291 2.12484 4.88579 8.51297 -0.825545 -1.37993 
285 1 95.94 19.2108 3.49645 6.48424 11.1034 10.8832 0.141926 
269 1 95.94 19.2741 0.0266713 6.19683 0.713661 -6.37092 -11.408 
144 1 95.94 23.9013 1.72259 5.07334 5.94263 -3.84452 8.43996 
287 1 95.94 22.5075 3.49585 6.52799 4.06259 -0.622956 9.79223 
146 1 95.94 1.42288 4.94589 4.71459 -2.65028 4.19443 5.49617 
291 1 95.94 3.11309 6.3826 6.55782 -1.27986 12.6931 -1.55852 
148 1 95.94 4.89973 4.75593 4.60979 2.48759 -9.11087 4.38357 
293 1 95.94 6.05769 6.67235 6.67512 0.0387774 -8.82823 6.47121 
150 1 95.94 8.10541 4.75043 4.817 0.0903408 4.53669 -0.555025 
295 1 95.94 9.5234 6.30883 6.22452 2.46996 8.56005 -2.4067 
152 1 95.94 11.0022 4.68624 5.09069 -4.49689 4.98063 -7.77845 
297 1 95.94 12.5455 6.34279 6.61531 11.692 -1.10056 -3.09202 
154 1 95.94 14.0303 4.80021 4.58618 -2.98397 -0.409022 -11.8837 
156 1 95.94 17.4884 4.68451 4.75259 5.25946 8.51782 0.70897 
299 1 95.94 15.7019 6.34465 6.55415 -4.60846 2.57535 -3.40984 
158 1 95.94 20.8178 4.92196 4.61068 6.48694 6.21609 1.53524 
301 1 95.94 18.9534 6.17182 6.22625 4.26685 -3.04404 1.74622 
289 1 95.94 25.5115 6.56304 6.46427 1.78697 -0.104833 -1.77396 
160 1 95.94 24.0784 5.0129 4.68257 3.78918 -2.39766 -0.800368 
303 1 95.94 22.0374 6.75018 6.581 -3.60396 2.9457 3.53121 
162 1 95.94 1.55423 7.9463 4.68966 3.68672 3.69558 -3.512 
307 1 95.94 3.36568 9.77987 6.60297 -3.57056 -1.25579 -7.90952 
305 1 95.94 25.5774 9.47841 6.1646 -1.09911 -0.356981 -2.1516 
164 1 95.94 4.78375 7.99325 4.87099 -1.07997 -6.93126 -7.54456 
309 1 95.94 6.31973 9.76223 6.69652 4.99978 -11.3028 2.27154 
166 1 95.94 7.93451 7.96636 5.02062 0.447911 -2.7406 2.96811 
311 1 95.94 9.74703 9.51404 6.49317 -9.5912 -9.27992 -3.69709 
168 1 95.94 11.164 7.93258 4.67588 -0.177702 -0.958713 7.87212 
313 1 95.94 12.9692 9.5739 6.45084 -1.65284 -1.14011 -1.66864 
170 1 95.94 14.1563 7.89983 4.9098 1.49419 1.28629 -2.23934 
186 1 95.94 14.4342 11.2088 5.13056 -7.4724 -0.771813 -10.8131 
172 1 95.94 17.5517 7.96449 4.9295 -7.22966 11.3028 8.35583 
315 1 95.94 16.1222 9.23301 6.40878 4.52445 -1.84184 1.53412 
174 1 95.94 20.8777 7.97897 4.86063 1.12682 3.9325 1.40059 
317 1 95.94 19.2521 9.29252 6.55689 2.83382 -9.52422 3.5975 
176 1 95.94 23.7538 7.90124 4.88521 -1.20908 -5.1024 -6.41514 
319 1 95.94 22.3491 9.7544 6.7576 4.1559 -0.517287 0.124745 
178 1 95.94 1.50955 11.1563 4.92615 -7.36755 -2.49209 -10.3573 
194 1 95.94 1.51163 14.19 4.73553 0.272695 -1.83923 3.54429 
323 1 95.94 2.93934 12.8424 6.72541 -0.377161 -5.01878 -5.83006 
321 1 95.94 25.4947 12.5747 6.14381 -3.37959 0.173393 -0.733901 
180 1 95.94 4.98782 11.0922 5.02802 -0.683922 1.21019 3.89827 
325 1 95.94 6.36178 13.0301 6.39145 -5.18725 2.74751 -7.5259 
182 1 95.94 8.19219 11.115 4.72079 -2.42352 2.03465 -12.8104 
198 1 95.94 8.06358 14.3758 5.01708 4.4318 6.63976 2.50688 
327 1 95.94 9.42152 12.8301 6.41571 3.23888 -3.325 7.66547 
184 1 95.94 10.9642 11.1754 4.75091 5.03637 0.269941 -2.40152 
329 1 95.94 12.9319 12.7936 6.29332 4.25785 -2.42715 -0.242367 
200 1 95.94 11.3626 14.3942 4.89572 -5.52599 8.98048 4.02477 
202 1 95.94 14.536 14.7338 4.97769 6.44571 -2.83081 -3.08452 
188 1 95.94 17.8527 11.1094 4.93757 -4.11511 -9.13683 -7.99831 
331 1 95.94 16.184 12.6078 6.48682 -2.51161 3.66408 -4.94088 
190 1 95.94 20.9596 11.2998 4.75776 0.13014 -2.00886 4.6546 
333 1 95.94 19.4441 12.5881 6.59066 2.76052 -7.06104 11.0907 
192 1 95.94 23.8269 10.9545 4.84672 4.92439 1.8636 -4.31815 
208 1 95.94 23.9664 14.0589 4.82043 2.93374 -10.7737 -4.49066 
335 1 95.94 22.4964 12.4905 6.58866 2.78006 -1.12086 -8.13316 
210 1 95.94 1.85504 17.646 4.69978 -7.81554 5.78772 -6.05213 
339 1 95.94 3.17599 16.0892 6.04211 1.55482 5.45884 5.47074 
337 1 95.94 0.144987 15.552 6.31945 -0.98116 -3.62931 -1.96539 
196 1 95.94 4.80988 14.2965 4.85141 -2.84202 -3.36791 8.34133 
212 1 95.94 5.0133 17.712 4.86004 -1.93707 -1.23603 2.46734 
341 1 95.94 6.58972 15.9764 6.46194 1.25714 -0.22884 1.12776 
214 1 95.94 7.97688 17.8049 4.53383 1.21384 5.0676 -3.48936 
343 1 95.94 9.74796 15.9938 6.226 -1.47911 -0.406331 2.86422 
216 1 95.94 11.4175 17.8103 4.74472 -3.00758 -1.9935 -3.92535 
218 1 95.94 14.3834 17.7146 4.82058 0.264026 -0.0794806 -2.68201 
345 1 95.94 13.0399 16.2563 6.47869 -5.20578 0.0367617 -10.3676 
204 1 95.94 17.7776 14.4154 4.95225 -4.42451 13.8281 5.42588 
220 1 95.94 17.6122 17.8202 4.86377 -4.20494 -4.41365 -10.842 
347 1 95.94 16.1983 16.1372 6.09306 -7.66591 -3.14433 3.20694 
206 1 95.94 20.9056 14.3661 4.86556 -5.98194 4.17206 4.23015 
222 1 95.94 20.698 17.6689 4.82819 -2.03909 -3.57795 7.11082 
349 1 95.94 19.42 16.3304 6.36733 -3.61392 6.69088 2.82491 
224 1 95.94 24.2558 17.3876 4.98862 5.98848 14.5586 -0.90669 
351 1 95.94 22.182 16.1608 6.36293 -2.14726 2.44633 3.36629 
226 1 95.94 1.63079 20.9097 5.27174 -11.8745 -5.65552 -2.57791 
355 1 95.94 3.57725 19.2066 6.44648 -2.7743 -1.36996 -6.41006 
353 1 95.94 25.4365 19.3254 6.45306 -3.94267 -0.681973 -5.93439 
228 1 95.94 4.90243 21.0704 4.60615 7.62649 0.643143 4.89968 
357 1 95.94 6.42693 19.2199 6.4081 5.48771 1.42522 12.7925 
230 1 95.94 7.77495 20.6384 4.6723 -5.61964 -2.44936 -1.1601 
359 1 95.94 9.41273 19.3052 6.20005 -13.6509 0.170284 -6.39714 
232 1 95.94 11.4116 20.8137 4.802 -3.08575 -1.23705 0.806576 
361 1 95.94 12.9998 19.2998 6.43918 1.90866 -5.90327 -9.71263 
234 1 95.94 14.5434 20.9295 4.91997 5.22295 5.45272 -3.55133 
236 1 95.94 17.5643 20.9017 4.91063 -4.48286 5.44981 0.619041 
363 1 95.94 15.7899 19.1872 6.81924 -3.71774 0.780686 6.94351 
238 1 95.94 20.6884 20.9155 4.76824 -0.886637 -3.19218 -3.14302 
365 1 95.94 19.0587 19.0229 6.62956 1.40596 3.35815 -3.2144 
240 1 95.94 23.7372 20.816 4.85851 0.98159 1.1162 3.90243 
367 1 95.94 22.2985 19.5989 6.17073 -1.01252 -1.49378 -1.21573 
259 1 95.94 3.16303 0.14224 6.28546 -0.664461 0.175922 -6.35324 
242 1 95.94 1.77859 24.0841 4.80051 4.96482 3.85139 5.93084 
371 1 95.94 3.05806 22.5868 6.77487 6.71312 -2.94773 -6.36112 
261 1 95.94 6.12058 25.6147 6.19064 -9.77249 4.84526 -3.767 
244 1 95.94 4.55944 24.2085 4.53126 -2.04376 -7.16754 -0.153238 
373 1 95.94 6.44855 23.0153 6.28278 -1.03191 -4.83539 1.5139 
246 1 95.94 8.08847 24.4448 4.13074 7.05914 -3.7383 0.594679 
375 1 95.94 9.53587 22.4587 6.34418 2.07509 -5.09 -1.78396 
265 1 95.94 13.1081 25.5445 6.45832 -1.66059 -2.11558 -6.38444 
248 1 95.94 11.0888 24.1558 4.64 -1.35453 0.644374 1.33451 
377 1 95.94 12.5638 22.5304 6.34344 -0.881093 -3.06132 -4.52854 
250 1 95.94 14.2758 24.0019 4.56126 4.91197 -3.78122 1.7113 
252 1 95.94 17.5824 24.2906 4.94385 7.78659 -4.38282 -6.6074 
379 1 95.94 16.2109 22.7908 6.1204 -2.82506 -1.7372 -1.86174 
381 1 95.94 19.1315 22.3458 6.36008 5.35403 -3.98767 -2.35605 
254 1 95.94 20.7839 23.9779 4.82578 -4.52052 2.37493 -0.114869 
271 1 95.94 22.4117 0.249967 6.42546 -1.17932 8.46516 1.68199 
369 1 95.94 25.5933 22.564 6.65907 -2.62745 -3.37972 0.33577 
256 1 95.94 23.9559 23.9444 5.02647 5.32341 -3.02394 -3.17273 
383 1 95.94 22.4583 22.4118 6.50075 -8.17922 -1.05096 0.681208 
258 1 95.94 1.47072 1.68251 7.97174 3.14334 5.06278 -6.67734 
403 1 95.94 2.77174 3.05116 9.68209 4.71359 6.09626 1.28476 
401 1 95.94 25.2334 3.39829 9.84801 1.8975 -1.95996 -2.54668 
387 1 95.94 3.00411 -0.00171016 10.0185 5.85648 -6.64847 1.14098 
260 1 95.94 4.55649 1.46305 8.54886 -1.11177 -4.66108 4.62937 
405 1 95.94 6.51441 3.06143 9.67437 5.36069 5.83969 0.974034 
262 1 95.94 7.71075 1.5769 7.58985 4.60773 3.65051 6.41336 
407 1 95.94 9.50669 3.13277 9.61123 1.68959 -0.935533 -1.7122 
391 1 95.94 9.3727 0.0158726 9.35321 2.83439 0.232554 1.0558 
264 1 95.94 11.0871 1.45377 7.6833 2.32883 7.39025 0.714578 
266 1 95.94 14.3411 1.6772 7.84504 3.27952 0.47805 6.52226 
409 1 95.94 12.7567 3.07033 9.68372 4.41432 7.82537 4.21062 
393 1 95.94 12.6908 25.519 9.60466 -2.72194 5.64578 1.24105 
268 1 95.94 17.5133 1.90113 7.75754 -2.71901 -0.376107 1.6649 
411 1 95.94 15.8939 3.26856 9.56768 2.8455 -12.3389 -4.2496 
395 1 95.94 15.9624 0.100772 9.53162 -0.106287 -1.46992 1.41751 
270 1 95.94 20.4761 1.65922 7.80158 -0.514963 -11.7176 6.13277 
413 1 95.94 18.8582 3.22201 9.6869 -2.56184 2.09953 6.8906 
415 1 95.94 22.2366 3.13238 9.49404 -1.88493 -2.21088 -3.95055 
272 1 95.94 23.8687 1.77305 7.9146 -4.87845 2.13385 0.803381 
274 1 95.94 1.4366 4.87483 8.04285 9.94262 8.73161 -6.68535 
419 1 95.94 3.21458 6.20643 9.97621 -0.458438 1.33451 1.19414 
276 1 95.94 4.58019 4.64444 8.03339 -3.90677 -2.05011 0.0144736 
421 1 95.94 6.32022 6.33591 9.95012 1.37819 -1.32169 2.2435 
404 1 95.94 4.66865 4.6082 11.1521 0.566963 -0.856705 0.130688 
278 1 95.94 8.00969 5.06637 8.05597 -4.45594 -1.41459 3.41856 
423 1 95.94 9.42151 6.47549 9.95537 7.79278 -8.05128 -1.30601 
280 1 95.94 11.0271 4.80099 7.9237 1.93215 -4.49932 -3.52449 
425 1 95.94 12.6892 6.46848 9.52714 -1.78485 3.96737 0.752146 
282 1 95.94 13.7377 4.82048 8.15256 2.27759 2.24923 -0.689727 
410 1 95.94 14.1322 5.04165 11.2729 8.19328 3.54221 0.444261 
284 1 95.94 17.3546 4.81513 7.98359 -0.143471 -3.81185 -0.0384852 
427 1 95.94 15.7836 6.11072 9.52888 0.129463 0.891977 -7.73113 
286 1 95.94 20.6728 4.98014 8.09161 5.82331 13.976 -6.62912 
429 1 95.94 18.9653 6.08443 9.44797 -1.90904 -10.9889 4.6089 
414 1 95.94 20.5501 4.95184 11.1299 -6.94081 -8.31944 4.32281 
417 1 95.94 25.5053 6.23262 9.74889 7.23049 1.60923 -2.14813 
288 1 95.94 23.9508 5.12454 7.84727 -0.580105 12.7988 -3.1207 
431 1 95.94 22.5151 6.71732 9.70697 -11.458 2.31031 -2.04668 
290 1 95.94 1.70113 8.14859 8.14908 -0.296543 -1.24137 2.69332 
435 1 95.94 3.31614 10.2059 9.74076 3.10666 3.42714 9.90283 
433 1 95.94 25.3093 9.45483 9.78828 2.1822 4.56943 4.12561 
292 1 95.94 4.683 8.19899 8.46657 -1.28394 -6.05331 -1.79132 
437 1 95.94 6.61007 9.62893 9.87687 -1.6483 -7.14143 7.62442 
294 1 95.94 7.89103 7.86493 8.07605 5.64822 9.10312 -3.64455 
439 1 95.94 9.47804 9.51401 9.71915 10.3128 5.9279 -2.09386 
296 1 95.94 10.9548 7.7606 8.02606 2.17657 1.46125 3.94345 
441 1 95.94 12.584 9.51761 9.61051 -2.30915 -10.3775 4.02356 
314 1 95.94 14.4278 11.3897 8.0322 -2.84644 -6.44482 1.00688 
298 1 95.94 14.1501 7.87981 8.0239 -1.15521 -2.36946 3.83193 
300 1 95.94 17.5327 7.77011 7.94191 -3.78583 -4.39074 -6.17167 
443 1 95.94 15.815 9.79376 9.45343 -9.20991 1.93838 -1.71359 
302 1 95.94 20.6523 7.9563 8.21785 -3.00162 3.27616 -4.14558 
445 1 95.94 18.8674 9.57236 9.72647 -11.4991 -4.99769 7.91185 
430 1 95.94 20.8227 8.07597 10.9968 2.01049 11.8232 3.7638 
304 1 95.94 24.2168 7.97474 8.06095 6.52399 -0.0557483 -8.47449 
447 1 95.94 22.4979 9.49404 9.41382 -1.67254 -0.490812 4.0033 
432 1 95.94 23.7143 8.4301 11.3085 2.74135 1.39398 16.33 
306 1 95.94 1.35193 11.1421 8.06776 -3.02526 1.11279 -3.77196 
451 1 95.94 3.38023 13.0384 9.73149 -4.32179 2.99177 -6.9209 
449 1 95.94 0.239788 13.1722 9.74583 -7.13419 -3.77104 -1.1716 
434 1 95.94 1.45751 11.1602 11.3955 -2.47965 -2.96706 -1.56698 
308 1 95.94 4.92246 11.3128 8.03527 4.97631 -6.19799 3.33072 
453 1 95.94 6.42706 12.5736 9.4666 3.71695 -2.54495 -0.238052 
324 1 95.94 5.0608 14.3817 8.15269 4.05555 7.39811 12.9271 
436 1 95.94 4.93406 11.2694 11.171 0.00229143 -10.4861 0.637291 
310 1 95.94 8.15033 11.2081 7.77627 -0.543664 0.627966 -0.983935 
455 1 95.94 9.76083 12.6536 9.4866 -0.56241 2.47508 -0.88798 
326 1 95.94 8.10446 14.3258 8.20035 5.02447 7.63839 -8.22927 
312 1 95.94 11.0479 11.22 7.86486 -6.39154 0.296032 3.17103 
457 1 95.94 13.133 13.0125 9.41678 -2.33188 -4.46765 -5.37616 
328 1 95.94 11.3111 14.4964 7.77645 2.91262 -3.44659 10.4203 
330 1 95.94 14.5918 14.5079 8.03052 -3.01418 4.00923 2.13428 
316 1 95.94 17.5482 11.0383 8.01827 1.6184 -1.50435 -9.29148 
459 1 95.94 15.9718 13.0155 9.60029 -9.9195 4.04663 -0.643488 
332 1 95.94 17.6828 14.6964 8.13382 3.56326 -5.5713 4.48969 
318 1 95.94 20.7129 11.1305 8.23617 9.4666 -2.26434 0.100382 
334 1 95.94 20.7227 14.5276 8.04944 2.89209 1.48712 -7.03458 
461 1 95.94 19.5061 12.6313 9.78636 0.616812 -5.13185 1.29635 
446 1 95.94 20.9021 10.9359 11.145 1.97907 -1.7112 -6.47726 
320 1 95.94 24.2318 11.144 7.76301 4.29821 5.02353 0.27966 
463 1 95.94 22.4868 12.9357 9.68509 -4.21412 -0.532764 0.899817 
336 1 95.94 24.1044 14.2957 7.88775 4.78726 7.69268 0.369947 
448 1 95.94 24.2102 11.2698 11.2231 2.07442 -5.85336 -11.4595 
322 1 95.94 1.89883 14.6367 8.18727 -3.10779 1.74262 -9.42925 
338 1 95.94 1.57577 17.7407 7.83602 0.535355 -1.67692 7.33905 
467 1 95.94 3.54208 16.0331 9.71936 -2.4912 7.41295 -6.32034 
340 1 95.94 5.05769 17.2255 8.24165 -7.02371 -5.17763 -9.69144 
469 1 95.94 6.49111 15.8911 9.75858 -8.00601 7.44203 -8.6227 
342 1 95.94 8.21631 17.5676 8.13329 -4.12131 5.20745 -0.592402 
471 1 95.94 9.48752 16.1739 9.65157 -3.99449 0.405458 -3.41017 
344 1 95.94 11.1147 17.8342 8.04018 4.6931 -2.20922 4.21781 
473 1 95.94 12.6246 16.0016 9.62561 -0.124461 -3.58487 -6.71063 
346 1 95.94 14.3317 17.3646 8.23532 -0.351815 -2.19854 -1.35967 
472 1 95.94 11.0637 17.7144 11.0526 -1.37105 -7.29993 -0.189361 
348 1 95.94 17.6259 17.7463 8.13847 -8.11555 3.16464 -2.36578 
475 1 95.94 15.9304 16.0735 9.71542 -1.60158 0.42246 3.56874 
350 1 95.94 20.8918 17.8966 7.95129 0.906819 0.344304 3.74373 
477 1 95.94 19.3879 16.4854 9.59727 5.07051 -0.543991 3.01679 
465 1 95.94 25.4108 16.0045 9.34572 1.49601 -3.10799 -4.07452 
352 1 95.94 23.8197 17.6335 7.74148 -0.451727 4.98918 1.08018 
479 1 95.94 22.6262 15.8904 9.61862 -0.631678 0.404428 -0.199746 
354 1 95.94 1.50686 20.74 8.07683 2.96972 -5.59416 -4.72301 
483 1 95.94 3.31945 19.2531 9.4075 0.905749 3.45023 4.73033 
356 1 95.94 4.87727 21.1171 8.01914 -5.43321 -2.19855 4.43085 
485 1 95.94 6.62569 19.3582 9.14483 -9.65069 -1.57205 -2.62767 
358 1 95.94 8.00323 21.1717 7.87343 -6.24401 -6.13864 -1.2267 
487 1 95.94 9.739 19.5155 9.51497 7.05875 2.44512 2.10394 
360 1 95.94 11.0044 21.1642 7.96147 0.132595 5.2179 4.63212 
362 1 95.94 14.4097 21.3257 7.8001 0.230321 3.2518 6.15635 
489 1 95.94 12.6839 19.365 9.50349 2.23787 3.83446 -10.0448 
364 1 95.94 17.4777 20.5708 8.17194 -1.95351 -0.636006 -9.44109 
491 1 95.94 15.7097 19.3122 9.72219 -5.00953 -8.53065 -5.21048 
492 1 95.94 17.7873 21.0316 10.9327 1.26174 0.64012 -3.31491 
366 1 95.94 20.5787 21.074 7.97537 -3.00282 -4.27749 -1.75261 
493 1 95.94 19.375 19.2749 9.62639 -2.32792 -4.86337 0.150949 
481 1 95.94 25.3402 19.3556 9.5454 4.83282 -2.72222 6.7229 
368 1 95.94 24.151 21.0396 8.02596 9.55913 3.34201 6.65195 
495 1 95.94 22.4114 19.3153 9.37046 6.62776 -4.552 -1.35238 
370 1 95.94 1.68857 24.1797 8.15493 -2.09753 -2.86777 -2.97132 
499 1 95.94 2.97623 22.3573 9.67245 0.546286 -6.95367 -11.0262 
385 1 95.94 25.4644 0.376508 9.50258 6.12976 3.27354 -0.18573 
389 1 95.94 6.51485 0.0955465 9.59026 -2.75665 6.31534 8.24096 
372 1 95.94 4.70887 24.2074 7.9826 1.05705 -0.806405 1.64393 
501 1 95.94 6.50581 22.6969 9.41682 -3.72397 3.65763 -0.561843 
500 1 95.94 4.92211 23.9286 11.0486 -6.6672 -6.96388 -3.24544 
374 1 95.94 8.0304 24.0041 7.764 5.39284 -6.00804 -10.3227 
503 1 95.94 9.55572 22.3494 9.69809 1.60692 -2.51196 8.20371 
376 1 95.94 11.3 24.1629 7.84249 0.121681 -0.370445 11.74 
505 1 95.94 12.7538 22.6107 9.68373 3.43871 2.43043 -1.9466 
378 1 95.94 14.2406 24.351 7.9997 9.08125 -2.89633 4.57348 
380 1 95.94 17.5214 24.0141 7.89814 2.3095 1.15644 -0.976436 
507 1 95.94 16.2685 22.7443 9.86829 1.66941 0.305504 -4.43001 
397 1 95.94 19.0832 0.0973344 9.58648 1.95049 8.25337 1.56992 
382 1 95.94 20.6915 24.1868 7.97069 8.9206 -7.81451 -1.93308 
509 1 95.94 19.1096 22.5234 9.46738 -1.04051 2.01738 0.324121 
399 1 95.94 22.3286 0.13983 9.72447 -6.03069 6.19805 0.189848 
497 1 95.94 25.3508 22.491 10.1263 -4.66394 -3.24063 4.46441 
384 1 95.94 23.8503 24.1205 8.23364 -2.92213 3.53684 1.21988 
511 1 95.94 22.3341 22.4442 9.41565 -1.53947 -0.309888 1.05345 
386 1 95.94 1.58343 1.6294 11.5076 7.78021 -10.731 -0.944333 
514 1 95.94 1.46672 1.67946 14.8134 -6.03066 -0.761291 -11.8336 
531 1 95.94 3.22223 3.05164 12.9719 -3.62558 -0.508042 6.35982 
529 1 95.94 25.6211 2.90022 12.619 8.08218 -3.05145 -5.81777 
515 1 95.94 3.21579 25.3273 12.839 1.45937 4.78862 0.0731259 
513 1 95.94 0.146847 25.4113 12.7613 -1.94844 4.62173 -1.9947 
388 1 95.94 4.83524 1.78714 11.4597 -1.58079 4.91741 3.81856 
516 1 95.94 4.75766 1.58625 14.3504 9.27486 -1.34252 2.36867 
533 1 95.94 6.51894 3.29913 12.9449 1.39063 8.15865 6.20181 
390 1 95.94 8.14192 1.45101 11.2684 5.62701 -6.7406 1.46886 
535 1 95.94 9.47594 3.39818 13.0132 4.69247 -5.41477 -4.00202 
518 1 95.94 7.96928 1.53054 14.5046 8.59311 -8.57957 -1.3237 
520 1 95.94 11.1587 1.85905 14.1587 0.99018 1.83687 11.8629 
519 1 95.94 9.40803 25.5785 13.0286 -3.32056 -3.82413 6.78688 
392 1 95.94 11.0347 1.80793 11.2214 -8.43201 -3.84765 7.09489 
537 1 95.94 12.9128 2.98069 12.9384 4.98433 -6.95297 8.71334 
522 1 95.94 14.4216 1.58504 14.3902 16.516 -7.10707 -3.66077 
396 1 95.94 17.4941 1.67607 11.2592 12.8471 12.1192 3.49249 
394 1 95.94 14.4661 1.80008 11.1458 8.73585 -1.5369 -1.56084 
539 1 95.94 15.8642 3.33591 12.783 -2.20916 -12.1481 -5.21051 
524 1 95.94 17.3209 1.64321 14.1757 4.99987 -1.54454 -8.35378 
398 1 95.94 20.7521 1.77483 11.3853 -0.257332 -7.47772 -0.224147 
541 1 95.94 19.0236 3.34383 12.9376 4.065 0.194674 2.19589 
526 1 95.94 20.7219 1.47499 14.4655 1.4103 -0.564222 1.57545 
400 1 95.94 23.7035 1.7245 11.238 -2.81888 3.78025 0.164311 
543 1 95.94 22.3821 3.0925 12.9738 -3.17499 -0.181838 -6.58202 
528 1 95.94 24.1355 1.61875 14.4425 1.51605 13.4519 -6.38649 
402 1 95.94 1.81296 4.96728 11.4914 -0.0496953 3.08354 -1.66776 
547 1 95.94 2.99574 6.72848 12.6914 2.82728 5.81192 -4.31995 
530 1 95.94 1.54358 4.93666 14.4548 11.0487 -4.68575 -3.43062 
545 1 95.94 0.139736 6.61117 12.7373 3.83875 -6.87698 0.646955 
532 1 95.94 4.43345 4.86621 13.9942 0.565737 -4.58455 -2.30647 
549 1 95.94 6.15239 6.41181 12.9316 -5.80774 -2.54178 -0.661333 
406 1 95.94 7.69014 4.60868 11.2563 3.06175 5.9077 3.32993 
551 1 95.94 9.32856 6.38884 12.7813 1.4552 -0.638834 4.54053 
534 1 95.94 7.9613 4.97681 14.5842 4.88886 -0.0986163 -4.12194 
408 1 95.94 11.1944 4.8069 11.2681 -1.41284 -7.23638 -1.71942 
553 1 95.94 12.7956 6.56614 13.0756 3.71632 -1.386 -2.75817 
538 1 95.94 14.5749 4.82026 14.5741 -1.30533 -6.50371 1.27997 
412 1 95.94 17.5458 4.79769 11.1977 8.21573 1.57836 -4.53914 
555 1 95.94 16.0118 6.45283 12.5661 -4.1927 -0.0173633 4.21335 
540 1 95.94 17.8231 5.1081 14.1381 -3.62597 0.658398 3.64236 
557 1 95.94 19.085 6.83897 12.6223 -0.101949 -5.12843 -8.73879 
416 1 95.94 23.754 4.82027 11.5263 4.33052 -4.73986 -3.73673 
544 1 95.94 24.3948 4.75463 14.0599 -2.8293 -5.92345 -4.64318 
559 1 95.94 22.3482 6.81795 12.8466 3.67263 1.28856 3.22824 
418 1 95.94 1.42337 8.16707 10.9999 0.227314 -0.352573 8.91845 
546 1 95.94 1.58073 8.36984 14.2878 -4.44626 2.29899 0.0627529 
563 1 95.94 3.13673 9.80131 12.5652 2.44341 -2.62398 7.88725 
420 1 95.94 4.68225 8.35511 11.2414 -12.5249 2.7214 -1.77802 
565 1 95.94 6.35892 9.50424 13.1787 0.147881 4.74183 -6.35039 