ITEM: TIMESTEP
0
ITEM: NUMBER OF ATOMS
3456
ITEM: BOX BOUNDS pp pp pp
-2.1384305926197555e-02 3.8440176305925021e+01
-2.1384305926197555e-02 3.8440176305925021e+01
-2.1384305926197555e-02 3.8440176305925021e+01
ITEM: ATOMS id type mass x y z vx vy vz 
2 1 95.94 1.63761 1.46879 1.71425 -1.76537 8.38807 -0.224003 
45 1 95.94 3.09961 3.24818 3.19258 -0.916617 -4.36768 0.430704 
37 1 95.94 0.170912 0.0304767 3.19674 0.102823 1.81953 0.550805 
5 1 95.94 6.31937 0.288872 0.269788 -2.03206 1.48005 -0.59212 
4 1 95.94 5.10513 1.64102 1.7939 -3.56425 0.758624 3.94913 
6 1 95.94 8.02277 1.99459 2.05336 1.69842 -3.77792 -3.72335 
47 1 95.94 6.1765 3.31078 3.14193 -4.05186 -5.2126 1.0925 
42 1 95.94 7.91235 1.38237 4.7856 6.08218 -1.37396 -5.1452 
901 1 95.94 9.57246 0.0897244 3.30926 -6.34392 0.0604252 6.65311 
41 1 95.94 6.42984 0.302822 3.43816 0.186857 -10.4013 2.72533 
8 1 95.94 1.22418 4.68644 1.63472 0.810121 0.253756 6.9242 
51 1 95.94 3.2454 5.9803 3.06077 -6.34755 -2.7453 1.0085 
10 1 95.94 4.72497 4.88499 1.65766 -0.773192 -6.65351 -0.818994 
50 1 95.94 1.64695 7.55968 4.61372 2.21071 -1.14422 7.54673 
15 1 95.94 3.06964 5.96703 0.0526949 1.4807 4.03344 3.00923 
44 1 95.94 1.28616 4.73921 4.74589 0.843185 0.0323066 6.43495 
877 1 95.94 9.14083 6.39871 0.179934 10.3434 1.80516 0.638526 
12 1 95.94 7.99869 4.97755 1.84002 -2.16576 -4.47123 1.43666 
53 1 95.94 6.00316 5.92601 3.18991 8.50487 4.07998 6.25358 
48 1 95.94 8.08736 4.63341 4.76572 0.629712 4.66597 -2.17211 
21 1 95.94 2.90405 9.69186 0.360899 -5.509 -8.80826 1.73927 
55 1 95.94 0.0810189 9.26077 3.21721 0.851102 3.05637 6.37999 
14 1 95.94 1.47262 7.84727 1.6818 -1.70711 1.98687 1.40421 
57 1 95.94 3.2022 9.35475 3.59335 2.91593 3.87526 8.12687 
20 1 95.94 1.33507 10.8136 2.02588 -8.15041 -1.57273 -6.60975 
16 1 95.94 4.62724 7.80549 1.4077 -7.3487 -1.17205 -3.15379 
22 1 95.94 4.65046 11.0057 1.51204 -6.77962 0.594746 -7.22569 
52 1 95.94 4.7108 7.77192 4.76137 2.26607 -4.71 7.44053 
19 1 95.94 0.0962012 9.7086 0.115856 -0.688464 -2.2317 0.602477 
18 1 95.94 7.70505 7.9638 1.73936 0.588423 5.82811 -5.69537 
59 1 95.94 6.33338 9.69715 3.09635 4.52301 -0.238815 10.0039 
24 1 95.94 7.88174 11.0872 1.68764 -0.503127 0.917169 -6.0794 
54 1 95.94 7.68285 7.8083 4.61452 -0.988505 4.84871 4.15321 
919 1 95.94 9.26884 9.41394 3.63714 2.669 -0.159069 0.0114758 
26 1 95.94 1.87191 14.4158 1.51646 4.21428 -0.939103 0.392892 
63 1 95.94 3.29636 12.8561 3.43903 -4.61314 1.40642 8.54277 
27 1 95.94 3.2274 12.7344 0.0271649 -0.639466 5.37463 1.85435 
61 1 95.94 0.065914 13.0606 2.83382 -6.56748 2.65263 -1.68241 
25 1 95.94 0.220808 12.816 0.152447 0.40929 -0.0472406 9.54139 
28 1 95.94 4.79318 14.4756 1.54331 13.174 -3.91599 -10.5283 
30 1 95.94 8.09678 14.3994 1.58366 6.75529 0.987922 -6.39493 
65 1 95.94 6.31719 12.8163 3.1185 -1.61301 3.86004 1.87269 
66 1 95.94 8.02558 13.9633 4.57708 -3.64844 8.53231 5.09799 
64 1 95.94 4.82947 14.2764 4.73074 1.62208 0.83853 5.31058 
70 1 95.94 4.52602 17.5669 4.61028 -0.998507 -9.60784 2.51002 
471 1 95.94 3.00709 19.1692 2.99996 -1.34464 -6.82154 3.01025 
32 1 95.94 1.61139 17.4437 1.62026 -5.44165 -3.29566 1.86694 
69 1 95.94 3.21145 15.7813 3.24844 10.1699 10.3002 -1.6631 
34 1 95.94 4.54402 17.4345 1.91213 6.82281 -3.53993 -1.82523 
68 1 95.94 1.57756 17.607 4.57142 -3.60806 -4.0402 6.20466 
67 1 95.94 0.145566 16.0181 3.02426 -5.60148 1.00665 2.64622 
437 1 95.94 6.78 19.1073 0.438421 2.25381 -0.0304441 0.331417 
36 1 95.94 7.84358 17.3648 1.94409 4.01882 -4.54478 -1.34394 
71 1 95.94 6.29088 15.854 3.27652 2.43544 -0.894145 2.94278 
35 1 95.94 6.38564 16.3337 0.0341524 -2.34924 4.49509 4.11628 
895 1 95.94 9.56275 15.9077 0.0430615 3.06397 -6.01676 13.721 
40 1 95.94 4.75772 1.6034 4.98625 4.57052 -0.381089 -1.7882 
111 1 95.94 2.8749 0.114406 9.43576 -4.10535 3.63765 8.56499 
38 1 95.94 1.67196 1.63381 4.89438 -1.59246 10.3673 -4.59051 
74 1 95.94 1.48876 1.77367 8.0951 -2.61217 2.03625 -0.0733824 
81 1 95.94 3.14602 3.15964 6.33163 12.3257 -0.00705367 2.44403 
76 1 95.94 4.6977 1.55813 8.23089 -2.41836 7.17158 -1.37169 
115 1 95.94 0.00815464 3.46214 9.39163 -3.94988 -2.08143 -2.17388 
79 1 95.94 0.489822 3.1358 6.32806 1.02735 2.95346 -3.66731 
78 1 95.94 8.15194 1.69974 8.18072 -1.82819 -3.01341 -5.7394 
83 1 95.94 6.53068 3.13692 6.30479 -8.06335 4.86496 -2.12716 
113 1 95.94 6.35611 0.0624009 9.30048 6.94562 2.86929 -3.70856 
77 1 95.94 6.59086 0.0793567 6.62382 -4.24298 4.3099 -5.64218 
119 1 95.94 6.30744 3.13265 9.35308 3.79764 2.99194 11.1055 
46 1 95.94 4.59816 4.57897 4.90986 -1.67817 -3.04185 -9.20738 
80 1 95.94 1.59661 4.79291 8.18276 0.314852 -1.42769 0.946981 
87 1 95.94 3.05412 6.18722 6.08223 -3.20128 1.1983 -1.17908 
86 1 95.94 1.53327 7.66599 8.07309 -3.31924 -0.0844441 3.41317 
88 1 95.94 4.60295 7.63923 7.78186 -3.82837 -4.84985 -3.813 
82 1 95.94 5.09168 4.81412 7.91991 0.178232 -2.63676 6.59409 
84 1 95.94 8.10623 4.76417 8.27978 -3.0331 4.28209 1.37492 
89 1 95.94 6.51065 6.29897 6.50951 8.9186 -3.52267 -6.18628 
949 1 95.94 9.47238 6.15095 6.34888 0.16295 -0.346915 -5.41614 
91 1 95.94 0.255639 9.7235 6.45216 4.86097 0.0444389 -5.77901 
56 1 95.94 1.65063 11.3716 4.84049 -0.790233 -1.37029 1.53754 
93 1 95.94 3.05203 9.51109 6.62952 -7.35134 -1.26916 3.87367 
92 1 95.94 1.48867 11.0191 8.52855 0.417996 1.46832 3.44386 
58 1 95.94 4.64977 11.0941 4.87518 1.15162 2.62467 6.74841 
60 1 95.94 7.69415 10.971 4.9068 6.44789 3.4378 -3.04476 
955 1 95.94 9.50897 9.62994 6.93671 -2.42145 -1.73918 -8.64119 
94 1 95.94 4.87909 11.1883 8.20112 -1.46142 0.317922 -3.82147 
96 1 95.94 8.15029 11.1059 8.25957 4.26824 -2.53149 -6.69255 
90 1 95.94 7.72118 7.88753 8.06169 -1.1788 2.19912 2.47717 
95 1 95.94 6.3714 9.54944 6.72203 5.85074 -0.674991 -2.55907 
62 1 95.94 1.60737 14.3302 4.83682 1.25905 -3.97383 -5.62809 
98 1 95.94 1.71264 14.2518 7.8635 9.89077 7.26881 7.35425 
99 1 95.94 3.1975 12.6015 6.7229 7.45677 -1.61199 -4.12403 
100 1 95.94 4.78588 14.2832 8.26012 1.13071 7.40638 -0.12181 
102 1 95.94 8.4165 14.1385 8.08421 -11.5686 2.58337 -2.2773 
961 1 95.94 9.58783 12.6229 6.45396 -3.59876 0.615919 -0.969069 
101 1 95.94 6.45464 12.9501 6.48275 2.60521 2.94924 -1.5647 
106 1 95.94 4.68287 17.4446 7.85998 2.79038 0.552783 0.244628 
104 1 95.94 1.61362 17.7291 7.8025 7.58899 -6.79671 4.69621 
105 1 95.94 3.45027 15.7783 6.24213 6.3645 6.65044 3.69245 
103 1 95.94 0.0615382 16.234 6.21848 -8.97458 1.63042 -3.21313 
139 1 95.94 0.301466 15.9802 9.18929 7.27098 -2.27829 -0.49139 
72 1 95.94 7.835 17.4586 4.91499 6.38482 -1.06392 1.5209 
143 1 95.94 6.58835 15.8765 9.54738 -8.74627 3.76078 10.9657 
108 1 95.94 7.92783 17.5264 7.96515 3.51908 2.95411 -2.82561 
107 1 95.94 6.229 15.9877 6.32662 -8.09608 -7.28754 7.9874 
545 1 95.94 5.93764 18.9906 9.25888 -7.08686 0.804776 -10.8774 
967 1 95.94 9.22088 15.7673 6.35899 -7.31601 -1.27785 1.47498 
110 1 95.94 1.21172 1.83065 11.1668 -6.48059 -0.603955 -2.48366 
153 1 95.94 3.26786 2.75205 12.8002 -3.08462 11.0084 -5.69761 
112 1 95.94 4.74131 1.38107 11.112 2.76183 -3.79819 0.105125 
117 1 95.94 2.95067 3.19329 9.77198 0.213058 3.69216 -0.293385 
151 1 95.94 0.0613544 3.13527 12.954 -5.27733 1.90568 8.06714 
114 1 95.94 8.14201 1.30885 11.2605 4.30852 -2.58536 1.27974 
155 1 95.94 6.33594 2.85339 12.5794 -0.807914 -10.4317 -0.711636 
148 1 95.94 5.02238 1.68093 14.3619 -4.72291 5.17082 -7.37562 
116 1 95.94 1.30238 4.67904 11.3121 2.86803 5.45753 6.67348 
159 1 95.94 2.95485 5.82982 12.7945 -6.96724 1.4278 -3.57021 
124 1 95.94 4.46883 7.5883 11.4781 -4.04212 3.82549 3.55471 
160 1 95.94 4.13166 7.54407 14.2031 -3.39433 -3.31685 4.18339 
123 1 95.94 3.4733 6.0938 9.71585 -4.76143 5.86114 -2.62143 
118 1 95.94 4.97075 4.40683 10.9785 -8.14143 7.9257 -5.58137 
120 1 95.94 7.92299 4.46953 11.3464 9.69746 -4.92646 -3.3106 
161 1 95.94 6.35875 5.99784 12.5672 10.2862 -1.83587 11.6348 
125 1 95.94 6.23643 6.32599 9.66466 -1.27238 -3.61386 -2.73273 
1021 1 95.94 9.45428 5.95299 13.0906 2.48578 -1.79721 -1.60516 
129 1 95.94 3.11422 9.4016 9.63974 -8.22866 0.800406 0.484369 
122 1 95.94 1.86796 7.70622 11.1967 -0.305019 3.26066 -2.01141 
165 1 95.94 3.03156 9.80686 12.8163 9.39827 0.150705 2.26688 
128 1 95.94 1.75096 11.4478 11.4869 -3.68021 1.81169 7.46668 
130 1 95.94 4.62034 11.1525 11.7497 -3.88972 -3.54928 1.37728 
158 1 95.94 1.2609 7.86642 14.3718 -8.36146 -1.34146 -8.06528 
164 1 95.94 1.67529 11.1874 14.3536 1.19775 -4.93692 6.39707 
127 1 95.94 0.206444 9.26826 9.85496 3.42103 0.352446 -1.31603 
131 1 95.94 6.20763 9.35983 9.74521 -3.52868 4.52894 5.8748 
126 1 95.94 8.09354 7.91993 11.1429 3.38938 0.415673 7.878 
167 1 95.94 6.20643 9.14803 12.6535 0.0702202 -7.32174 2.38763 
132 1 95.94 7.67587 11.0124 11.2872 -6.67256 0.911555 -2.87039 
134 1 95.94 1.9082 14.704 11.034 -2.04737 -7.44366 -4.01942 
171 1 95.94 3.4383 12.9352 13.0569 4.50115 11.2997 -0.426324 
170 1 95.94 1.88475 14.2376 14.3566 -6.51329 -0.105991 -0.333701 
133 1 95.94 0.234517 13.1913 9.70731 2.85729 -1.017 -3.42935 
169 1 95.94 0.256906 13.0757 12.6489 -8.20806 -4.34908 -2.27005 
135 1 95.94 3.18134 12.6393 9.73425 -0.0903488 -1.32447 8.60876 
137 1 95.94 6.47996 12.6941 9.66803 -2.39922 2.54475 -3.02688 
136 1 95.94 4.87329 14.4417 11.5675 6.21569 -3.01248 -6.15902 
138 1 95.94 8.22809 14.1255 11.3236 3.11216 2.52239 0.486566 
173 1 95.94 6.89859 12.7497 13.2546 -3.8964 -9.00441 9.84398 
175 1 95.94 0.307155 15.9896 12.4467 -1.33685 3.51371 7.94338 
178 1 95.94 4.70033 17.8226 14.3935 1.19857 -3.55728 -3.53055 
543 1 95.94 3.10615 19.0914 9.63897 0.659977 -4.72134 -0.274667 
176 1 95.94 1.68873 17.7642 14.3942 1.84856 1.27144 -2.63324 
140 1 95.94 1.48047 17.8518 10.9926 -3.01315 1.04077 -0.065986 
177 1 95.94 3.23294 16.0232 12.9322 -1.92487 1.05417 0.93829 
141 1 95.94 3.31491 16.1837 9.62185 -1.79649 7.7354 0.495688 
142 1 95.94 5.082 17.7169 11.1397 2.98699 -3.88456 -1.29608 
144 1 95.94 7.96455 17.5463 11.2262 -2.72903 6.92553 -7.14695 
179 1 95.94 6.33848 16.047 13.0804 -6.83823 -9.53501 -1.41537 
180 1 95.94 8.12466 17.6859 14.3114 -1.31949 3.48984 -9.81085 
581 1 95.94 6.62447 19.1601 12.8507 -3.73113 -1.06034 2.78423 
146 1 95.94 1.51286 1.69462 14.4055 -1.56569 -5.66226 -4.09414 
182 1 95.94 1.55778 1.79946 17.717 5.24102 3.24302 8.95276 
189 1 95.94 3.24175 2.96668 16.0765 4.83046 -5.79838 -1.38945 
184 1 95.94 4.70254 1.39232 17.6006 -7.91017 1.65496 5.91671 
227 1 95.94 6.20862 3.18292 19.0681 -0.955709 11.2219 0.639036 
150 1 95.94 8.1558 1.56797 14.5567 -1.56998 2.48602 -6.35771 
186 1 95.94 7.95977 1.51977 17.4502 -2.75578 -1.51062 -0.650446 
191 1 95.94 6.34852 2.95022 16.1433 -1.51687 -0.418546 7.39723 
231 1 95.94 2.9172 6.4531 19.1547 2.25348 -5.50739 2.03353 
152 1 95.94 1.52541 4.64187 14.5131 -2.90616 4.01587 0.846242 
188 1 95.94 1.47989 4.55106 17.4582 -3.87858 -0.617912 -4.6419 
195 1 95.94 3.08307 6.26581 16.2699 -5.95083 -0.133635 -6.07765 
154 1 95.94 4.43592 4.57972 14.4128 6.96017 -7.67583 6.33103 
190 1 95.94 4.65853 4.71674 17.7717 -1.2113 -1.26344 1.90945 
156 1 95.94 7.72358 4.26416 14.4878 3.27552 4.18005 -5.63627 
233 1 95.94 6.39103 6.36632 19.157 -1.77721 -2.18853 2.76641 
1057 1 95.94 9.28075 5.90153 15.8077 2.31344 3.08591 -6.04314 
192 1 95.94 8.10998 4.52823 17.9014 -0.320818 8.07721 11.4548 
197 1 95.94 6.26165 6.23612 15.6969 1.10984 -2.94364 6.75914 
198 1 95.94 7.84996 7.58759 17.5476 -2.32969 10.1693 -8.64902 
194 1 95.94 1.20565 8.01743 17.5487 3.61694 2.46391 3.48952 
201 1 95.94 2.46271 9.30563 16.0836 -0.871801 -7.70649 2.91782 
200 1 95.94 1.62591 10.8947 17.6312 -0.71414 -7.23118 3.86964 
196 1 95.94 4.71603 7.81967 17.5087 -6.8698 -0.0858556 5.05389 
237 1 95.94 3.11756 9.50627 19.1711 -2.22183 7.30289 -4.62823 
1063 1 95.94 9.56892 9.03461 15.9082 4.42671 3.69736 1.38001 
166 1 95.94 4.96555 10.8732 14.5403 2.10576 6.5396 1.35075 
168 1 95.94 8.55229 10.983 15.0266 5.91531 3.27628 -10.7032 
162 1 95.94 7.60423 8.10819 14.4597 6.10609 -0.0581995 -5.29179 
202 1 95.94 4.79547 10.9702 17.5576 -2.15127 -2.15544 -3.45657 
204 1 95.94 8.19108 11.041 17.5779 -2.03155 5.0055 5.25733 
203 1 95.94 6.48008 9.63431 16.136 3.57114 0.471193 4.91656 
243 1 95.94 2.74023 12.3867 19.1741 0.880568 -7.34667 8.57007 
206 1 95.94 1.68032 14.3157 17.5346 -0.190021 0.281299 1.23411 
207 1 95.94 3.12325 12.6949 16.1795 -0.938702 -1.6283 -1.98573 
208 1 95.94 4.57917 14.0078 17.9973 -7.4935 -0.67349 8.32118 
205 1 95.94 0.0110873 12.8314 16.1278 -1.3886 -2.30064 -5.66231 
210 1 95.94 7.93567 14.7064 17.8921 2.1549 1.7731 1.04698 
209 1 95.94 6.58263 13.0318 16.1267 2.86096 0.157978 -2.35939 
172 1 95.94 4.84376 14.7802 14.5618 3.11176 4.64323 -4.17965 
174 1 95.94 8.12191 14.6406 14.6117 -2.19921 12.9692 4.22033 
245 1 95.94 6.71104 12.7966 19.2008 -9.5924 4.32713 2.65669 
249 1 95.94 3.19017 16.1162 18.8755 0.763289 8.08548 -0.0975228 
211 1 95.94 0.103835 15.8695 16.2838 5.34378 5.52649 -0.634184 
213 1 95.94 2.94672 16.0319 16.1266 7.29369 -0.175811 -6.55317 
214 1 95.94 4.64635 18.119 17.5195 1.3121 -2.10919 5.36072 
212 1 95.94 1.71077 17.7504 17.6245 -1.26186 -2.72989 5.50275 
613 1 95.94 0.170552 18.9335 16.1456 -3.1759 4.67333 4.43355 
251 1 95.94 5.92596 16.231 19.0392 1.01088 -2.94762 -8.25647 
215 1 95.94 6.29339 16.1977 16.1159 -2.44888 4.02083 0.938191 
216 1 95.94 8.03873 17.5795 17.4638 -11.8868 3.1628 -7.18712 
218 1 95.94 1.60098 1.79064 21.0376 -3.73118 -3.66639 -4.71051 
261 1 95.94 3.06853 3.28135 22.3196 3.06023 2.1082 4.13857 
220 1 95.94 4.65994 1.50724 20.3828 -4.62514 1.6105 10.9406 
254 1 95.94 2.10211 1.70176 23.8423 5.33468 -4.59548 -1.12496 
225 1 95.94 2.76912 3.10855 19.3184 5.27142 4.39699 -2.31241 
222 1 95.94 7.90955 1.37943 20.679 -1.79319 -0.696698 -0.132204 
263 1 95.94 6.37338 3.10157 22.2479 0.472374 2.05282 3.56877 
256 1 95.94 4.83267 1.72083 23.8933 6.07479 -3.52476 -3.48666 
258 1 95.94 8.02022 1.56275 23.6723 -6.72205 -7.46557 2.49842 
257 1 95.94 6.26635 0.124263 22.3883 9.0764 4.93468 -9.6587 
1087 1 95.94 9.54828 2.94031 19.597 2.43411 -6.00022 -5.94373 
1123 1 95.94 9.47788 3.35906 22.2212 5.69081 2.34484 2.19009 
224 1 95.94 1.57137 4.97451 20.7444 5.00633 5.62307 8.94903 
267 1 95.94 3.14612 6.59004 22.5059 -2.83569 -0.215296 2.98395 
226 1 95.94 4.75081 4.85197 20.6068 2.93984 -2.19812 -2.65908 
265 1 95.94 0.118725 6.53006 22.2864 -3.758 1.79932 3.32425 
260 1 95.94 2.00447 5.04027 23.7742 1.85549 5.13005 5.68777 
262 1 95.94 4.65987 4.89409 23.7174 -5.80738 1.72272 1.66251 
228 1 95.94 7.80344 4.57968 21.0025 -2.43873 -4.5208 1.31277 
269 1 95.94 6.48145 6.52479 22.424 6.2085 0.504511 -7.30043 
1093 1 95.94 9.40036 6.23314 19.4832 0.537681 -2.70043 6.27193 
264 1 95.94 7.67677 4.90792 23.9854 -9.98915 -2.20813 -5.00524 
230 1 95.94 1.54506 7.76219 20.6477 -0.404691 -6.25399 -7.1813 
273 1 95.94 3.14018 9.54282 22.4397 -1.30085 1.05482 -2.64544 
236 1 95.94 1.80588 11.1254 20.8716 -5.34131 -4.14258 4.34828 
274 1 95.94 4.65087 11.069 23.9704 4.04892 5.42177 2.07383 
232 1 95.94 4.67534 8.08397 20.6621 8.82957 1.69772 2.41891 
235 1 95.94 0.09244 9.60895 19.3919 0.370859 1.80967 2.99995 
238 1 95.94 4.93005 11.2666 20.7771 -5.10162 10.2321 0.203911 
1135 1 95.94 9.44213 9.59499 22.1786 -5.99725 1.88465 0.380443 
234 1 95.94 8.01539 7.71403 20.8277 1.00023 0.543261 -8.85139 
275 1 95.94 6.3912 9.67493 21.841 1.521 1.58689 -3.29665 
240 1 95.94 8.08324 11.0877 20.2141 9.25103 9.47566 0.863247 
276 1 95.94 7.96606 11.0917 23.8116 1.94125 -4.0313 1.53723 
268 1 95.94 5.00086 8.14262 23.9363 4.08687 -0.892418 0.536246 
270 1 95.94 8.2698 8.18386 23.8848 -1.98684 2.45358 4.90166 
239 1 95.94 6.26929 9.60841 19.2237 2.85379 -2.19235 1.62901 
242 1 95.94 1.49915 14.2032 20.5211 -0.120672 -2.29606 -1.73332 
279 1 95.94 3.25675 12.8597 22.3534 -5.0507 -7.25897 0.955896 
277 1 95.94 0.0116422 12.5306 22.5181 -0.843519 -4.28655 8.32826 
278 1 95.94 1.52146 14.3475 23.9788 -6.03661 -1.58544 -11.1124 
280 1 95.94 4.86641 14.689 23.7965 1.96131 -2.17377 -0.59409 
244 1 95.94 4.81021 14.1875 20.8455 -2.35321 4.91376 4.33665 
246 1 95.94 7.80011 14.8636 20.6194 0.114955 -2.56461 -9.56608 
281 1 95.94 6.36189 12.5776 22.5168 -4.72494 2.13871 6.4397 
282 1 95.94 7.8736 14.667 23.6189 -7.5146 5.14475 2.86734 
1141 1 95.94 9.35755 12.9023 22.1069 -3.07395 -5.9929 1.61468 
685 1 95.94 -0.00597954 19.1204 22.3396 -3.19888 -4.52151 6.24857 
248 1 95.94 1.82287 17.7225 20.9531 -1.9116 1.10222 -6.15483 
285 1 95.94 3.22847 15.8343 22.364 -6.14537 2.71222 -5.22237 
250 1 95.94 4.45814 17.7674 20.7874 -1.02658 -1.9846 1.08471 
284 1 95.94 1.72568 17.5332 23.9878 -0.259253 7.03143 -4.07951 
247 1 95.94 0.0824352 16.1272 19.2912 -1.68587 -8.32931 -9.06206 
288 1 95.94 7.78058 17.9195 23.7896 -3.86069 2.46029 -9.04952 
252 1 95.94 7.62257 17.7944 20.7212 6.73409 3.33388 0.29548 
287 1 95.94 5.99172 16.1588 22.0433 8.1437 -8.03238 2.56405 
286 1 95.94 5.12553 17.6804 23.9117 4.32826 -3.6904 -2.24424 
289 1 95.94 0.236179 0.391116 25.5421 -5.26096 1.01166 -3.62957 
328 1 95.94 0.326163 2.98494 28.702 -5.35127 0.171727 -6.33815 
326 1 95.94 2.97426 0.352804 28.601 2.77982 1.40668 -2.08258 
290 1 95.94 1.62208 1.70858 26.8957 -3.45941 -2.72032 -4.07068 
297 1 95.94 3.31645 3.14268 25.4926 0.415934 8.39692 0.569176 
292 1 95.94 4.72317 1.81244 27.2886 -2.8709 0.265657 -4.07107 
295 1 95.94 0.281069 3.31599 25.2579 -1.5327 12.719 1.15163 
329 1 95.94 3.187 3.51121 28.7184 4.46842 -0.752435 8.98744 
294 1 95.94 7.77086 1.61971 26.9363 -1.68782 5.37745 0.215487 
299 1 95.94 6.29523 3.10918 25.6607 2.77172 -5.17986 0.0438263 
327 1 95.94 6.57106 0.586817 28.6824 6.2767 -7.01342 -1.84246 
1159 1 95.94 9.41692 3.39075 25.3046 4.02885 1.33557 -0.336725 
332 1 95.94 3.12637 6.51768 28.5053 9.63865 -1.47689 2.13452 
296 1 95.94 1.49749 4.57028 26.9696 0.385081 4.66662 -4.39374 
303 1 95.94 3.61189 6.29727 25.699 4.92502 -2.25906 -6.22044 
302 1 95.94 1.3358 7.6353 26.8908 -1.32417 0.171169 -6.49858 
333 1 95.94 6.20858 6.09436 28.7364 -1.90245 0.268662 -0.385579 
298 1 95.94 4.87255 4.71368 27.0725 0.329872 0.239872 -2.58819 
300 1 95.94 7.88511 4.91068 26.9717 -7.18563 -4.7972 -3.60232 
305 1 95.94 6.54237 6.56787 25.473 -0.341688 -0.643875 -0.844114 
335 1 95.94 3.03642 9.77112 28.589 -0.150002 -8.14323 1.69179 
266 1 95.94 1.43339 7.94234 24.255 2.73065 2.59421 3.18356 
272 1 95.94 1.71281 11.2558 24.1784 -0.512334 4.4814 5.5273 
309 1 95.94 3.36188 9.32226 25.7786 3.46861 -1.75791 -7.55082 
308 1 95.94 1.85294 11.4339 27.1714 0.0550046 -4.26382 -4.33549 
306 1 95.94 8.20634 7.97369 27.1239 -5.31304 -1.53264 4.52177 
304 1 95.94 5.15316 7.89296 27.2464 -12.0356 3.30568 1.88374 
310 1 95.94 4.9917 11.2236 27.1755 -1.39757 2.87006 -3.62745 
311 1 95.94 6.69941 9.71566 25.2106 5.39435 0.766843 -4.81975 
312 1 95.94 8.03562 11.3423 27.0041 -2.53176 4.8493 -7.99199 
336 1 95.94 6.50903 9.91187 28.808 3.65177 -0.383906 2.71705 
338 1 95.94 3.53999 12.9848 28.7778 9.4084 6.4704 -1.83042 
316 1 95.94 4.55134 14.5441 27.0211 -0.980205 -2.05088 -4.77895 
314 1 95.94 1.79617 14.418 27.5202 0.5504 -0.389358 5.62619 
315 1 95.94 3.47042 12.887 25.4939 -4.71372 -1.14691 3.69536 
337 1 95.94 0.0761972 12.8352 28.5935 4.10852 0.255058 7.10294 
318 1 95.94 7.77759 14.8458 27.1987 -2.062 3.08385 3.44577 
1177 1 95.94 9.47201 13.2234 25.4103 7.28405 0.453043 -2.60661 
317 1 95.94 6.60918 13.0775 25.3344 2.56986 8.67255 -0.614618 
339 1 95.94 6.49853 12.9325 28.7556 -1.53603 0.36777 6.51517 
1201 1 95.94 9.52417 12.9697 28.7118 4.92685 -3.25213 2.49008 
319 1 95.94 0.0168462 15.8479 25.5587 -4.68004 -7.02791 -6.52334 
320 1 95.94 1.41887 18.0258 26.9688 0.317558 -3.41768 -2.48182 
321 1 95.94 3.24035 16.184 25.3654 1.58844 4.30381 0.19895 
758 1 95.94 2.9491 18.8892 28.7062 4.44035 5.11893 -8.26961 
324 1 95.94 7.96238 17.5578 26.7946 4.93303 1.68067 0.0345811 
322 1 95.94 4.98646 17.3925 27.0782 10.9376 -1.89594 0.781396 
759 1 95.94 6.32706 18.9987 28.7692 2.97995 3.01278 3.79269 
323 1 95.94 6.56364 16.06 25.4161 -3.26875 3.55606 -0.35808 
1204 1 95.94 9.5812 16.0213 28.6004 1.18082 -3.68037 -5.71236 
1621 1 95.94 9.37418 18.6867 28.4311 -2.48817 3.82372 -6.69404 
343 1 95.94 1.21143 1.54334 30.4516 13.2494 0.837265 -0.579765 
369 1 95.94 2.74786 3.22583 31.792 -3.25424 -1.7365 -3.24415 
364 1 95.94 4.57311 1.79967 33.4434 4.15872 2.95346 -1.43155 
344 1 95.94 4.7412 1.89929 30.4229 -2.61371 2.3888 -6.39054 
363 1 95.94 2.89932 0.152814 32.0446 4.6633 1.01761 -5.03148 
345 1 95.94 7.91159 1.6852 30.7332 -6.61045 -5.18632 -8.05513 
371 1 95.94 6.47059 3.25412 32.0094 7.68276 -8.40058 1.41711 
1225 1 95.94 9.49827 0.14148 32.1421 6.27226 3.55655 -4.0182 
1192 1 95.94 9.46998 2.85825 29.1629 -3.34322 -6.81375 -0.502672 
330 1 95.94 6.28402 3.25107 29.0649 -0.0545831 4.02677 -1.62342 
1231 1 95.94 9.25099 3.27522 32.2521 8.68877 1.48996 -7.44558 
365 1 95.94 6.38329 0.0576592 32.1635 -6.05 -0.180338 0.380703 
346 1 95.94 1.1387 4.6919 30.3819 -1.11736 0.95535 1.10443 
375 1 95.94 2.97235 6.3576 32.0116 -1.92189 -2.37811 -4.42347 
347 1 95.94 4.70373 4.99146 30.1632 0.484694 -1.54724 2.04671 
368 1 95.94 1.51696 4.74412 33.4601 3.87514 -1.37339 3.60807 
370 1 95.94 4.47934 4.63493 32.9223 -3.77837 -2.49182 2.1457 
373 1 95.94 0.0685595 6.61598 31.8142 3.89968 1.85747 6.59987 
348 1 95.94 7.97568 4.85162 30.5834 1.84558 -4.6636 5.87759 
377 1 95.94 6.29938 6.51453 31.9341 3.36068 -1.67973 -1.26833 
1237 1 95.94 9.49177 5.94495 32.1065 5.23169 -0.772669 -4.79018 
349 1 95.94 1.44557 8.0458 29.9853 -0.729292 8.76101 3.12997 
381 1 95.94 3.32015 9.47225 31.909 -1.76543 -3.45223 -1.03462 
352 1 95.94 1.7235 11.3335 30.3859 -6.73558 9.02635 -2.26685 
350 1 95.94 4.48421 8.03113 30.2031 -0.707848 8.74714 4.72851 
379 1 95.94 0.199984 9.85859 31.3654 2.32621 11.3095 -3.07571 
380 1 95.94 1.80579 11.0473 33.5266 0.0819961 5.50439 -2.16255 
374 1 95.94 1.65031 8.33924 33.5648 2.38757 2.10682 10.0352 
351 1 95.94 7.74203 8.05864 30.107 -2.56436 6.34788 -8.26851 
383 1 95.94 6.23774 9.72385 31.8632 -3.78904 2.75997 -3.54618 
354 1 95.94 7.91204 11.3409 30.088 1.14578 -6.90332 -10.3629 
382 1 95.94 5.11424 11.1269 33.4767 -3.15918 9.65271 10.7097 
384 1 95.94 7.77216 11.3787 33.6088 -0.418663 2.34723 2.96638 
378 1 95.94 7.84225 8.0686 33.2208 -1.96839 2.94696 -1.05019 
385 1 95.94 0.248896 12.9659 32.0576 0.257508 9.24481 7.59736 
355 1 95.94 1.86589 14.4297 30.5344 4.21202 -1.63583 7.79715 
387 1 95.94 3.2304 12.8694 32.5326 -7.65235 1.15389 -4.19383 
356 1 95.94 4.76061 14.5418 30.5884 2.23222 -3.39285 0.0564712 
353 1 95.94 4.88827 11.535 30.4258 -1.79353 0.595248 0.613051 
357 1 95.94 8.14275 14.6286 30.6376 5.92993 5.16175 -5.36323 
389 1 95.94 6.08374 13.2291 32.2631 -1.99365 4.44039 0.214993 
793 1 95.94 0.0202022 19.0815 32.0251 -1.09932 -4.48909 0.674769 
358 1 95.94 1.47195 17.649 30.2694 -1.24091 0.771281 -0.261513 
393 1 95.94 3.09102 16.0148 32.0635 3.22517 9.35893 2.13743 
359 1 95.94 4.62152 17.8133 30.3864 -12.6236 -4.08037 -2.80266 
795 1 95.94 2.84482 19.0734 32.0912 7.56625 3.19743 0.991196 
391 1 95.94 0.265444 16.1969 31.9753 -0.610048 -1.34453 7.02154 
341 1 95.94 3.309 16.1636 28.8338 -1.4775 -4.77043 -4.12285 
394 1 95.94 4.88214 17.6628 33.3757 4.43637 -5.67691 2.98232 
360 1 95.94 7.97234 17.685 30.4117 3.81439 -10.9747 -0.547818 
395 1 95.94 6.33885 16.1861 31.9596 1.81514 8.95546 0.621145 
1255 1 95.94 9.59156 15.8457 32.1293 2.88862 -1.1298 1.24492 
342 1 95.94 6.3799 16.0607 29.0107 -1.81975 8.38373 -9.90162 
362 1 95.94 1.27042 1.53728 33.8101 8.29171 -4.1882 -4.3233 
9 1 95.94 3.20874 3.12555 38.373 -1.37614 4.00493 4.44486 
1 1 95.94 0.0434901 -0.00544037 38.3486 1.51115 -0.618212 6.4289 
398 1 95.94 1.70083 1.63702 36.7981 3.38367 -0.00471511 6.36169 
405 1 95.94 3.06966 3.10886 34.9798 1.81476 -0.0861266 13.6284 
400 1 95.94 4.58492 1.63445 36.8966 0.166646 -3.55569 -0.731172 
399 1 95.94 3.36342 0.0921965 34.9668 0.401853 1.90168 -1.91586 
366 1 95.94 7.83083 1.55739 33.6732 -10.3565 1.5435 -0.614041 
871 1 95.94 9.16983 3.35597 38.2913 -4.14636 1.17859 -1.05549 
402 1 95.94 7.7228 1.70949 36.7912 -1.35231 2.82117 -0.387544 
407 1 95.94 6.2122 3.25155 35.0878 6.76119 -4.34144 -8.95988 
1261 1 95.94 9.55218 0.207802 35.4414 3.34989 5.92548 -3.23959 
401 1 95.94 6.24016 0.19866 35.0256 -1.44933 4.62547 -0.49844 
1267 1 95.94 9.40104 3.40711 35.1079 -0.264079 2.22268 -1.82003 
865 1 95.94 9.40279 0.0830596 38.1943 5.44861 3.51808 -0.710786 
11 1 95.94 6.25052 3.27155 38.4301 -2.16023 2.17975 -3.25469 
409 1 95.94 0.0298288 6.4037 34.9466 -0.962008 0.440451 -9.72028 
404 1 95.94 1.62615 5.02367 36.7643 1.59383 10.2921 2.40958 
411 1 95.94 3.31697 6.38172 35.2617 2.64905 -4.43095 6.97523 
406 1 95.94 4.42815 4.79828 36.8148 2.48143 -2.64526 0.528554 
372 1 95.94 7.93873 4.99893 33.7194 7.13153 2.16916 -0.984093 
408 1 95.94 7.69284 4.77677 36.5855 2.41236 -4.26003 -2.7489 
413 1 95.94 5.98299 6.30288 34.9945 -2.82072 6.2284 6.20763 
17 1 95.94 6.58724 6.50784 38.2055 -0.951014 0.616416 3.20173 
415 1 95.94 -0.015502 9.47881 35.3054 -5.46043 4.28064 0.235809 
410 1 95.94 1.39818 8.0667 36.7744 -6.33265 2.48369 6.45105 
417 1 95.94 3.17276 9.67105 35.6342 3.77895 -8.07126 -1.86677 
416 1 95.94 1.6798 11.2341 36.8141 3.86301 0.0285043 -0.247425 
412 1 95.94 4.70006 8.20882 37.1318 3.8952 1.20509 -3.58368 
376 1 95.94 4.72897 8.144 33.6951 7.91819 3.57388 3.20137 
418 1 95.94 4.72074 11.1847 37.0137 1.64804 4.4037 3.14271 
419 1 95.94 6.2649 9.50585 35.3492 13.6875 -4.35245 -5.01373 
1279 1 95.94 9.50341 9.53852 35.1463 8.7463 7.12099 1.222 
420 1 95.94 7.9819 11.2808 36.5043 -11.877 -4.2051 0.762635 
414 1 95.94 8.0478 8.09276 36.7228 2.26405 -8.53691 -5.49387 
23 1 95.94 6.87879 9.62798 38.2729 6.89149 -1.48081 -3.07939 
423 1 95.94 2.98057 12.5408 35.1128 -0.0130895 0.987512 5.25954 
424 1 95.94 4.72753 14.4763 36.9021 2.63454 -1.11609 -6.51979 
388 1 95.94 4.66954 14.485 33.6389 1.83418 -1.4953 6.95482 
422 1 95.94 1.73238 14.2943 37.0203 -3.72688 4.66278 1.13633 
386 1 95.94 1.49147 14.4343 33.8899 9.36721 -3.79899 -1.90158 
426 1 95.94 7.85973 14.7426 36.902 -3.46313 -2.87868 -6.91781 
1285 1 95.94 9.36042 12.7931 35.2037 7.64224 4.66523 1.85083 
425 1 95.94 6.20583 12.7527 35.2034 -1.67221 -7.88434 3.02574 
390 1 95.94 7.88063 14.3222 33.7116 3.99978 3.77388 1.87905 
29 1 95.94 6.36851 13.037 38.4057 -2.6662 1.22815 3.03371 
829 1 95.94 0.177181 19.2072 35.1657 5.64059 -2.41752 4.27278 
392 1 95.94 1.75804 17.5593 33.6903 5.63255 -0.234462 6.25219 
33 1 95.94 3.08929 15.9807 38.3469 6.5312 7.61197 -3.9905 
429 1 95.94 3.32934 16.1515 35.094 2.85441 5.36576 1.18732 
428 1 95.94 1.48099 17.6088 36.8582 2.5644 5.88809 0.610544 
433 1 95.94 -0.00596907 18.9448 38.3237 9.33735 12.7581 -1.40916 
833 1 95.94 6.79225 18.939 35.4284 0.0230165 2.34295 5.91244 
432 1 95.94 8.27864 17.6598 37.1106 -1.28279 -1.49427 -7.31041 
396 1 95.94 8.16649 17.9275 33.6534 7.29615 3.76015 6.04761 
430 1 95.94 4.85784 17.5176 37.0076 -7.72469 -1.37858 1.82622 
431 1 95.94 6.52247 15.9069 34.9553 1.19099 3.2912 -1.52424 
434 1 95.94 1.1698 20.7256 1.42715 3.4121 -7.04798 5.95189 
477 1 95.94 2.85251 22.4417 3.37093 -2.09329 3.9211 5.21783 
435 1 95.94 3.41862 19.297 0.181308 -4.37318 -4.3754 2.50959 
441 1 95.94 3.36512 22.2921 0.23261 7.46039 1.06904 5.85272 
475 1 95.94 0.0264641 22.3166 3.02213 4.68085 -1.42579 8.06788 
436 1 95.94 4.93264 20.8794 2.04275 5.95509 0.534755 0.389354 
438 1 95.94 8.22351 21.0456 1.80162 7.41885 -2.80826 -0.109125 
479 1 95.94 6.22321 22.5072 3.39764 4.22814 -2.12089 -3.07329 
473 1 95.94 6.43409 19.3254 3.54792 -2.85711 -3.44835 1.53305 
1339 1 95.94 9.3399 22.5453 3.51153 -3.85487 -8.04951 2.18696 
443 1 95.94 6.20606 22.4588 0.140934 -5.64676 -2.83386 5.45783 
440 1 95.94 1.4355 23.9946 1.34144 0.845811 -6.92402 -2.47995 
483 1 95.94 3.21223 25.6067 3.21793 -4.10855 1.18592 -11.0065 
442 1 95.94 4.74875 23.5399 1.81156 -1.80892 0.686321 4.35496 
449 1 95.94 6.35867 25.3016 -0.00912135 -0.869146 6.68646 -2.11204 
444 1 95.94 8.06152 23.6308 1.75642 -3.65585 -3.03587 -0.584975 
485 1 95.94 6.23968 25.406 2.94833 -6.72948 -1.97935 -1.37864 
1345 1 95.94 9.46665 25.6658 3.19828 -1.2491 3.74472 1.98195 
1309 1 95.94 9.11324 25.5483 0.0626036 3.35599 -2.48056 -1.08568 
482 1 95.94 1.50835 27.1154 4.73087 -2.89794 0.452007 0.316218 
446 1 95.94 1.62923 26.9692 1.2201 -5.68275 -6.33349 5.11167 
489 1 95.94 3.20045 28.5663 3.0816 3.06786 -4.99088 -0.26748 
452 1 95.94 1.46686 30.4005 1.68547 -2.36383 2.9515 -3.3346 
454 1 95.94 4.72656 30.1681 1.56004 -2.03699 4.05338 -2.28925 
448 1 95.94 4.71691 27.062 1.54924 6.67963 2.30273 4.82951 
488 1 95.94 1.54289 30.3466 4.55942 2.92035 -2.03348 1.18284 
487 1 95.94 0.0396598 28.698 3.36083 -8.09897 -1.15805 1.84112 
453 1 95.94 3.14976 28.6489 0.143964 6.35394 -6.9382 2.43792 
455 1 95.94 6.27633 28.5502 0.332993 -3.47146 -5.01424 -8.84005 
450 1 95.94 7.97098 27.0842 1.57866 -4.35464 4.19167 -9.33588 
491 1 95.94 6.54116 29.1055 3.5209 -4.40623 14.4892 5.57103 
456 1 95.94 7.77225 30.4958 1.75411 -4.10956 -4.26968 2.91587 
486 1 95.94 7.83045 27.1788 4.64996 -2.68276 -0.0916203 -6.08196 
1351 1 95.94 9.45622 28.7561 3.2287 -1.25748 -1.24794 -4.82251 
458 1 95.94 1.77392 33.6417 1.30561 -4.46388 -7.1062 9.05473 
495 1 95.94 3.03229 31.9604 3.21644 4.08219 -2.03284 3.00149 
494 1 95.94 1.59613 33.4664 4.59377 -3.79358 4.86529 6.56381 
460 1 95.94 4.6595 33.5974 1.69787 2.44054 -8.51609 4.33629 
459 1 95.94 3.04125 31.7522 0.0914945 -0.498899 0.692242 -1.9709 
461 1 95.94 6.20122 31.7977 0.149332 1.84612 3.83206 2.20508 
462 1 95.94 8.04615 33.8091 1.73828 8.70242 -2.27782 -1.61239 
497 1 95.94 6.00511 32.0182 3.28976 -9.23801 -7.4161 1.41587 
1357 1 95.94 9.51307 31.9622 3.36821 -3.65381 -0.56803 10.8685 
3 1 95.94 3.15353 38.3718 0.565224 -3.34369 -6.11778 0.498163 
464 1 95.94 1.35957 36.5694 1.76398 -2.05259 1.36298 4.62464 
501 1 95.94 3.2103 35.2074 3.31803 -0.394192 1.33231 -1.04756 
39 1 95.94 3.22971 38.248 3.64402 -7.66848 -8.61632 -8.09194 
465 1 95.94 3.20482 35.0669 0.0783791 -3.1203 -10.9954 6.849 