ITEM: TIMESTEP
20000
ITEM: NUMBER OF ATOMS
8192
ITEM: BOX BOUNDS pp pp pp
-0.403233 51.6283
-0.403233 51.6283
-0.403233 51.6283
ITEM: ATOMS id type mass x y z vx vy vz 
3910 1 95.94 50.4725 3.46345 0.395883 -5.57937 -3.25173 -1.41051 
294 1 95.94 2.29743 3.49889 3.60299 3.28939 4.14367 3.51593 
4367 1 95.94 21.6255 25.4759 4.11869 -1.06341 -2.08096 6.39281 
7906 1 95.94 0.659195 0.630959 2.27482 2.5334 4.7965 6.53229 
36 1 95.94 2.94446 1.40153 1.85363 1.88587 5.55526 -1.5987 
37 1 95.94 5.53373 1.9578 1.6852 -3.86634 -9.74064 2.29931 
5068 1 95.94 8.08637 1.99181 1.20116 -8.45138 -5.45686 8.22822 
3674 1 95.94 38.7095 10.4773 0.0158234 0.0995518 0.180672 -7.44543 
4008 1 95.94 10.2023 12.0299 -0.231306 1.27941 4.26828 4.78547 
7916 1 95.94 15.1572 -0.0051641 -0.280132 8.68489 1.02083 1.59499 
777 1 95.94 12.2669 0.739802 1.72437 -0.478228 1.81237 -9.06592 
10 1 95.94 15.2302 -0.0314214 2.88492 -1.28601 3.54159 -0.68815 
298 1 95.94 18.1866 1.34158 2.25329 1.71426 11.5199 -5.42111 
523 1 95.94 17.0797 1.9634 0.225726 2.17409 -1.16837 2.17151 
521 1 95.94 15.8913 2.69947 3.1753 -9.89758 1.78737 1.41146 
305 1 95.94 21.0929 2.35055 2.29145 -1.84837 -2.3159 -4.00537 
268 1 95.94 19.5163 1.57256 -0.316297 -2.88915 -0.962059 -1.25781 
308 1 95.94 30.9085 3.81139 -0.0944557 -6.56262 6.72102 -3.5854 
297 1 95.94 17.4904 5.73891 0.289042 2.65914 7.22052 -0.0836498 
50 1 95.94 22.0044 1.07647 0.161803 7.00625 4.96374 -2.0217 
306 1 95.94 24.1165 2.07834 1.37969 -0.174343 2.78308 -4.63453 
8178 1 95.94 29.4127 -0.398598 3.00061 -7.44624 -4.26463 -4.59242 
274 1 95.94 25.9161 0.0927767 2.06752 -0.919557 -2.27431 -4.89172 
4336 1 95.94 29.343 1.82578 1.08187 -3.54668 -9.38243 -10.6601 
15 1 95.94 26.7785 2.41031 1.22286 -0.122866 3.24449 -10.5139 
5661 1 95.94 42.6191 24.887 16.5767 -3.83205 -3.77579 -5.34623 
3860 1 95.94 31.8614 1.21592 1.0388 1.42149 2.59645 -6.37568 
3994 1 95.94 40.9978 17.5672 0.944424 -3.03647 1.3858 3.69701 
539 1 95.94 36.2797 2.38679 3.35425 -7.08575 -3.96618 11.1784 
26 1 95.94 36.0007 1.52004 1.02973 2.38424 14.7678 -1.7274 
4054 1 95.94 30.7503 22.0326 -0.0176836 3.49805 2.3274 -1.62033 
997 1 95.94 14.0547 24.4791 8.85947 -4.4648 -0.945235 2.02293 
283 1 95.94 38.5206 2.55349 0.911847 2.26472 8.08184 5.43325 
280 1 95.94 41.0777 3.99748 0.0727053 -1.82854 -0.438113 -9.48555 
282 1 95.94 41.2009 0.869731 0.782137 6.91241 -3.62528 0.645518 
3901 1 95.94 43.657 0.514771 2.51175 3.30435 5.08145 -1.70314 
312 1 95.94 40.8813 0.0704044 3.20894 0.533169 1.90325 -1.44611 
4538 1 95.94 35.095 -0.350241 3.49945 2.54824 -5.8079 -1.09086 
1862 1 95.94 8.98571 8.24537 25.3512 -3.87365 3.60361 3.66807 
31 1 95.94 45.3366 2.39047 3.47745 -16.6567 -6.3395 -7.15059 
4351 1 95.94 46.0661 0.48065 1.27864 2.50334 4.43268 2.52 
93 1 95.94 45.127 4.54029 1.36696 -7.16697 -6.05647 6.45334 
711 1 95.94 12.8257 16.2113 0.00192493 7.3821 -6.78941 8.2431 
3617 1 95.94 49.6625 1.24581 2.5481 -4.16171 5.47327 0.763423 
8164 1 95.94 51.4319 0.757361 -0.146248 9.13583 -10.1202 -9.01447 
68 1 95.94 0.779511 4.96169 1.99219 5.91261 -0.594528 1.50679 
34 1 95.94 1.66724 5.97037 -0.208082 -4.88196 1.57308 -1.2636 
101 1 95.94 3.67574 4.02778 1.54313 3.62959 -0.192663 7.27329 
3940 1 95.94 4.17056 5.95276 -0.140217 3.00214 -1.04472 -2.36228 
293 1 95.94 6.05755 5.06244 2.14429 -3.3777 -5.49664 4.65231 
8168 1 95.94 8.36866 4.78539 1.32571 -1.30561 -5.53792 6.21752 
8 1 95.94 9.9085 2.86746 2.99142 0.908454 -4.35957 -7.08743 
3909 1 95.94 8.32067 7.46452 1.78118 -9.1375 1.96294 -10.8989 
551 1 95.94 10.9598 2.81867 0.593703 -0.0394717 8.62774 6.51326 
72 1 95.94 11.0397 5.34034 1.80585 0.824337 -5.8222 0.989305 
587 1 95.94 12.8411 3.47477 2.56462 -3.25243 7.8703 3.89018 
5091 1 95.94 6.21726 -0.277123 10.6665 -4.84391 -1.76254 3.06458 
264 1 95.94 15.7366 4.94166 2.00596 2.29051 -7.77547 -3.94588 
773 1 95.94 8.89796 -0.315196 5.44977 0.398493 -3.70783 3.64682 
329 1 95.94 18.8067 3.88028 1.32775 3.9051 -0.809698 -3.40423 
270 1 95.94 22.2924 4.27971 0.937583 1.74262 4.6332 -1.98948 
42 1 95.94 20.1188 6.42231 1.53901 1.76899 1.22286 2.28569 
339 1 95.94 25.047 5.26302 0.946852 -3.51494 -2.91616 7.15516 
367 1 95.94 22.837 6.66572 2.19668 2.7571 -0.97893 4.84821 
307 1 95.94 29.5541 4.39769 2.57951 -3.61438 -5.51074 -5.64818 
340 1 95.94 27.3495 6.75275 1.51594 1.95649 0.339268 -4.09962 
128 1 95.94 47.0444 16.4336 0.432294 0.177063 1.44157 -2.31801 
53 1 95.94 32.0932 4.03055 2.79506 4.10814 -1.89093 -9.07483 
3925 1 95.94 32.7822 6.51262 0.940203 -4.90527 4.82369 6.48829 
1799 1 95.94 9.61771 -0.107198 20.4357 -2.4989 -0.31792 -6.71421 
310 1 95.94 33.932 3.85457 1.14629 0.177831 -10.4894 6.80105 
3958 1 95.94 35.3004 6.56193 0.416937 -0.760395 -4.68378 2.90726 
4345 1 95.94 36.5121 4.66402 1.58774 7.23218 10.7365 -11.1855 
279 1 95.94 37.1119 6.84208 3.42501 -7.09541 1.67021 -5.34276 
4603 1 95.94 39.5007 5.61443 2.06993 3.21694 -2.204 -2.30801 
122 1 95.94 43.2006 2.94472 1.37093 1.29611 -1.48044 -3.48807 
409 1 95.94 42.0477 5.91128 1.69344 2.58172 -1.88703 1.28222 
4067 1 95.94 3.65728 18.8198 -0.0284466 6.5237 -4.51923 -2.1589 
60 1 95.94 44.5025 7.3356 2.745 -1.35872 6.99248 11.814 
4340 1 95.94 28.8145 -0.23077 7.47619 -3.81374 5.55452 -0.491637 
260 1 95.94 4.55752 -0.0465879 0.0351164 0.138758 2.47776 -3.25834 
319 1 95.94 49.1189 4.13525 3.07532 -5.65807 0.0479454 0.972719 
62 1 95.94 47.5994 6.69974 1.85322 -12.5055 2.32007 -8.78326 
292 1 95.94 2.5428 7.13929 2.36416 -6.48625 2.07486 -4.02284 
160 1 95.94 0.42251 7.98039 1.56109 -2.20158 1.62309 6.45301 
66 1 95.94 3.0359 8.89577 0.600008 2.41053 -7.03388 -2.91518 
419 1 95.94 -0.113091 10.9148 0.412101 -3.29226 4.89992 6.09291 
325 1 95.94 5.66668 7.69837 1.79536 5.45367 -2.01551 -3.98091 
1335 1 95.94 39.834 -0.148799 13.4756 -1.84385 -0.723243 8.24973 
4151 1 95.94 38.8856 25.553 3.15585 -5.58264 2.07383 -0.0933657 
99 1 95.94 7.62379 9.62108 0.503184 4.36736 -3.99559 -1.57218 
3946 1 95.94 11.8953 10.6309 1.21342 -0.849562 6.10884 -3.54287 
393 1 95.94 11.5342 8.21445 2.54923 5.1085 7.23441 1.40818 
330 1 95.94 13.5914 6.54452 2.67702 -6.28513 5.08189 5.7441 
3852 1 95.94 12.0715 7.48564 0.21655 2.55244 4.72663 -5.91306 
43 1 95.94 16.1137 7.25976 2.60664 2.6303 1.79995 2.47969 
73 1 95.94 16.0641 10.233 2.61235 -3.22308 -1.07942 -0.303632 
110 1 95.94 13.9732 8.9637 1.38553 -1.55603 -0.86699 7.97065 
2047 1 95.94 46.97 24.1761 19.2759 6.19274 -0.309598 0.532032 
4584 1 95.94 13.2304 0.0273897 15.3975 0.4576 4.80018 5.93948 
111 1 95.94 19.9287 8.87524 0.436915 0.167995 -3.98566 0.601893 
1514 1 95.94 12.8619 25.4464 19.6995 4.63485 2.29328 1.55395 
3892 1 95.94 23.9649 8.17795 0.41723 4.18705 8.31798 -2.78875 
5061 1 95.94 10.6573 0.48552 14.4616 4.96906 2.39054 7.5663 
785 1 95.94 21.4852 -0.370248 10.0183 7.53698 -2.50983 1.14576 
627 1 95.94 25.3672 7.33582 2.78039 3.54718 -2.89984 0.432982 
593 1 95.94 28.6546 9.11735 2.2385 5.04711 -7.8595 1.37787 
3955 1 95.94 26.0691 9.49287 1.05223 -0.739925 4.93777 -3.83493 
595 1 95.94 29.5629 7.32757 0.437244 5.9043 -4.26502 3.96656 
83 1 95.94 31.6068 8.74475 1.66352 -6.14725 -0.338196 -1.8339 
147 1 95.94 30.1567 11.1352 -0.29902 -12.3596 -4.37412 -2.82887 
86 1 95.94 35.0306 8.35211 2.05221 3.70811 -1.85595 -0.0109788 
313 1 95.94 39.708 7.65085 3.31942 -5.33404 -3.7713 16.8068 
346 1 95.94 38.0963 9.5426 2.31292 -1.74776 -3.89718 -3.74644 
377 1 95.94 40.6536 10.8467 1.8667 2.51476 4.01584 7.32923 
345 1 95.94 37.7834 7.12519 0.262738 1.60803 -8.49309 -2.35711 
375 1 95.94 42.3706 8.78357 2.98083 3.05481 -1.40516 0.955899 
3968 1 95.94 43.0574 10.3972 0.778813 1.80862 5.32383 -4.67072 
90 1 95.94 40.1641 10.5471 4.38319 1.55435 -10.8566 7.87286 
151 1 95.94 40.2343 13.0403 -0.201492 -0.872211 -4.82425 -0.443596 
3671 1 95.94 40.3074 8.53307 1.00939 8.99935 3.71542 -6.21884 
635 1 95.94 45.2397 10.5138 2.85325 -2.11136 2.02635 8.78019 
96 1 95.94 45.847 8.74856 0.471433 -6.91911 1.50655 3.20049 
353 1 95.94 47.917 9.54662 2.56543 -3.12008 1.19872 -0.819084 
380 1 95.94 49.991 8.55231 0.828952 -0.121438 -2.62002 6.70123 
387 1 95.94 0.717166 12.6794 2.7099 1.98573 -11.1703 -3.98451 
257 1 95.94 1.28913 3.21525 0.427489 0.383004 -4.9985 -2.6285 
129 1 95.94 2.07718 11.8985 0.366578 6.27353 0.187903 0.00553488 
163 1 95.94 4.95061 10.8061 0.56848 13.232 0.571579 3.78401 
420 1 95.94 5.80591 13.622 1.65615 0.278779 1.07364 0.34869 
1267 1 95.94 25.7476 25.0703 12.5357 -0.419733 4.6896 -0.976524 
357 1 95.94 9.65855 10.2333 1.82775 -0.298791 -6.93664 -3.96115 
134 1 95.94 8.45826 12.8612 2.57917 -6.40424 -9.22323 1.01768 
389 1 95.94 6.13344 10.9533 2.54452 -2.74947 -0.853852 -6.68741 
1960 1 95.94 9.2195 19.4311 25.2118 6.23292 -4.22546 -2.24235 
107 1 95.94 13.8775 11.861 2.16039 4.92444 9.27158 -5.63483 
3949 1 95.94 16.7792 13.0515 2.14921 -11.5345 -1.21584 -5.51643 
4011 1 95.94 18.2506 10.8617 0.612876 -3.72335 3.06156 2.59482 
81 1 95.94 20.5638 11.6997 1.53963 4.21642 -3.1115 5.13905 
3920 1 95.94 23.7678 10.6543 1.1247 1.77026 14.4095 -3.92879 
399 1 95.94 22.7137 13.7321 1.21621 15.6787 6.18768 2.92106 
4085 1 95.94 28.8853 20.3968 -0.279455 -2.62878 -0.373955 1.04179 
368 1 95.94 25.3941 12.6645 1.60242 -6.59163 -2.33328 2.37189 
146 1 95.94 30.0414 13.3183 0.662764 7.17992 -3.90406 -0.0286501 
883 1 95.94 33.617 10.273 3.01538 9.12875 -2.12165 -0.469112 
116 1 95.94 31.0574 11.1015 2.17613 3.8095 -1.37716 -0.179142 
88 1 95.94 36.1938 11.1179 1.22806 4.75507 -0.297052 -4.61234 
3990 1 95.94 34.8275 13.2375 1.72503 8.59736 0.738786 -4.40747 
150 1 95.94 38.5136 12.4542 2.5359 -5.6989 5.05496 -1.34257 
411 1 95.94 38.2505 14.8282 2.84866 -2.31447 -1.94386 6.48953 
153 1 95.94 41.0117 13.5922 2.14328 -0.74083 4.15768 2.73394 
412 1 95.94 42.3969 14.9362 1.07897 -1.51332 -1.79278 2.26738 
670 1 95.94 46.9462 11.6687 1.67122 -4.43584 1.84317 0.678124 
126 1 95.94 47.5535 14.0109 2.16825 3.13456 4.18245 -5.92019 
94 1 95.94 44.3616 12.888 1.67871 2.34645 0.376469 11.0591 
3999 1 95.94 49.5381 11.5883 0.926924 -2.84742 -7.89014 -1.82121 
224 1 95.94 50.4012 13.6332 2.20845 6.88121 -1.61599 -5.64118 
448 1 95.94 0.0542605 15.5765 2.68167 1.60256 0.586916 -3.52929 
193 1 95.94 2.39553 14.2748 1.32063 -1.31643 -7.09541 -5.10397 
4064 1 95.94 2.09915 17.0247 1.3394 3.86411 9.38447 6.57829 
418 1 95.94 -0.295412 18.0026 1.94302 -3.9532 -3.44323 -1.50121 
98 1 95.94 5.27703 16.0508 0.407193 -2.88057 5.70244 1.08788 
454 1 95.94 6.96769 15.9191 3.26595 1.66295 -0.409703 0.792966 
648 1 95.94 10.5139 17.5855 0.70705 3.73052 2.2101 2.17525 
675 1 95.94 10.0205 15.143 3.12605 2.34883 -11.239 -1.19093 
423 1 95.94 8.02333 16.6664 1.00575 -1.81551 -0.782204 -1.20901 
3974 1 95.94 9.79626 14.6374 0.250539 -7.4827 10.4694 5.75176 
3978 1 95.94 12.4022 16.5048 2.98858 -1.3576 -0.60185 -1.74343 
4009 1 95.94 12.2301 13.919 1.7502 2.30574 -4.19879 1.05961 
4043 1 95.94 14.8598 17.4491 1.3516 1.87479 -0.500279 3.76616 
171 1 95.94 14.4802 14.5243 2.80437 3.63346 1.98263 -0.585818 
3944 1 95.94 14.8885 14.0368 0.545572 -4.46988 -2.83009 -4.80834 
139 1 95.94 17.0037 15.6474 1.66228 9.85268 -3.10292 2.94118 
4883 1 95.94 34.9933 24.856 9.30038 -13.2557 0.201203 1.64633 
172 1 95.94 19.0927 14.5177 3.20751 3.37605 -0.666646 9.03262 
143 1 95.94 20.0285 14.3961 0.00840779 -7.50164 -8.0983 -2.64543 
400 1 95.94 19.8023 16.9674 1.73167 -0.237923 -3.2057 4.59203 
402 1 95.94 21.6314 14.953 3.31268 -4.31197 -9.11292 4.92633 
2159 1 95.94 22.6661 9.43702 24.9743 5.69926 1.72118 -2.67796 
401 1 95.94 23.8792 16.2394 1.70903 4.99883 2.5906 4.08936 
977 1 95.94 27.193 16.042 3.03573 9.49146 -5.80418 -6.23553 
8176 1 95.94 28.0687 -0.218046 0.474434 3.59888 -2.11085 -5.26732 
687 1 95.94 28.896 15.8851 0.770948 10.9913 -1.26116 -6.9801 
722 1 95.94 27.3775 18.0105 0.122938 1.49225 3.29887 -2.18992 
5685 1 95.94 38.4545 25.6097 20.3913 -0.695008 1.62943 -2.87007 
149 1 95.94 32.2677 14.3055 2.1673 -3.48971 0.116516 7.90529 
3922 1 95.94 30.7733 16.5249 3.16807 7.77286 6.95303 6.93401 
469 1 95.94 33.1786 16.9349 1.76822 -1.14024 4.07936 0.432342 
1532 1 95.94 39.7045 25.0349 17.5122 8.69285 -6.4517 -1.62091 
407 1 95.94 34.2205 15.689 3.63355 5.43047 -3.21682 -2.40153 
3964 1 95.94 39.4199 15.7543 0.724739 4.2153 0.196463 0.88405 
261 1 95.94 7.05308 -0.427813 1.23918 9.11628 -8.88255 -1.27688 
3956 1 95.94 36.5067 15.9206 1.79953 -6.64364 -3.27296 4.22297 
186 1 95.94 38.5263 17.7325 2.85883 -4.77473 -5.0185 -5.14026 
1728 1 95.94 45.858 25.3306 16.2022 -0.970541 9.52922 3.26373 
667 1 95.94 43.1924 17.4348 2.25175 -8.16513 -3.98179 1.09281 
131 1 95.94 7.20588 12.4397 -0.128903 -5.56173 -3.0527 -2.18602 
187 1 95.94 45.3568 15.4295 2.14743 -3.75831 -0.556924 -0.162174 
4026 1 95.94 47.4313 16.5313 3.19576 2.43451 10.4318 0.128776 
2417 1 95.94 25.0476 8.30492 25.3706 2.01865 -0.739261 -3.732 
4028 1 95.94 49.706 16.0263 1.92051 -0.143317 -3.07211 -2.10824 
190 1 95.94 49.7133 15.3025 4.25597 11.0567 -7.09377 4.08715 
479 1 95.94 49.6819 17.8633 4.83681 7.6599 0.179062 1.14791 
3777 1 95.94 1.80322 19.6831 2.17548 5.73266 0.69545 4.06666 
3812 1 95.94 0.282055 19.4784 4.22122 10.0534 0.705314 -8.39998 
731 1 95.94 0.898286 22.1524 -0.202728 -0.984769 -3.49485 -0.968675 
736 1 95.94 5.16781 17.547 2.58285 3.17511 -5.80095 2.69606 
196 1 95.94 7.22764 18.631 2.73049 2.74478 1.23578 -5.87432 
4006 1 95.94 6.45012 21.2699 2.33708 3.05031 -10.1916 1.74175 
195 1 95.94 6.03526 18.5305 0.320396 2.10287 -2.67343 -6.19742 
166 1 95.94 10.1167 20.3464 1.1252 -1.05798 -2.67939 -8.97398 
226 1 95.94 8.45689 20.4776 3.80102 -3.53156 -5.66142 0.0159095 
676 1 95.94 11.3073 22.7425 0.673872 -4.51428 -2.59609 2.12094 
201 1 95.94 8.42291 22.2117 0.165999 -3.64628 10.1018 4.84658 
713 1 95.94 12.6283 18.8918 1.24263 4.62255 3.56536 5.26589 
3787 1 95.94 17.6959 18.2005 0.685325 -8.36233 -2.52074 -4.14079 
140 1 95.94 17.0348 21.0889 2.29053 -6.67625 -7.37607 8.4428 
168 1 95.94 15.4528 19.6802 0.197999 0.240628 2.88735 -4.90602 
427 1 95.94 16.6347 18.8537 3.10198 -3.09074 1.04329 -1.91314 
426 1 95.94 19.1765 19.1505 2.82082 3.01757 -2.92463 -6.48605 
653 1 95.94 21.8417 18.5425 1.78229 -11.4541 5.83739 9.78478 
686 1 95.94 24.2725 18.4363 0.726211 -0.827426 5.95721 -1.30252 
4086 1 95.94 26.3079 20.4548 1.41606 12.6035 -10.2765 -0.699402 
503 1 95.94 28.7206 18.3861 2.79295 5.70146 2.02496 3.93267 
4371 1 95.94 28.8114 21.5378 2.2118 -3.54742 3.67125 -4.19486 
470 1 95.94 32.9871 20.0301 0.425662 -0.742392 -0.54104 -8.21489 
467 1 95.94 31.116 17.7202 0.66062 0.0613556 -1.36071 -2.9294 
468 1 95.94 30.9321 19.7589 2.36232 12.1271 -1.65778 0.456988 
2358 1 95.94 38.0901 4.45191 25.0031 7.23347 -4.6842 -3.84025 
436 1 95.94 35.1376 18.2996 -0.379767 -6.88787 5.98185 -0.342799 
471 1 95.94 33.8668 19.8441 2.83212 -1.95314 -5.3265 -5.31264 
3886 1 95.94 17.1076 8.36467 0.298774 -3.35921 -3.02153 1.74697 
185 1 95.94 37.9157 18.2429 0.412668 12.0663 -1.89676 -3.32828 
4058 1 95.94 39.6007 20.144 1.55891 0.170827 14.4252 -4.53639 
4088 1 95.94 37.9829 20.8574 -0.0166766 5.62087 2.24999 -12.9538 
157 1 95.94 42.5537 20.0715 1.06741 -7.19873 -0.971197 8.13143 
729 1 95.94 40.838 22.3825 0.619713 10.3559 3.16643 13.2673 
443 1 95.94 41.801 21.7977 2.90802 -3.68411 16.3375 -1.82507 
4056 1 95.94 45.6178 18.4057 1.49288 5.43252 3.6197 -3.79792 
4377 1 95.94 44.4445 21.0969 2.31144 -1.22333 -4.40351 4.14839 
156 1 95.94 47.2664 20.5866 1.64071 -1.01722 5.28703 0.370013 
735 1 95.94 51.1221 21.2003 1.46663 1.69097 -6.25325 10.1929 
4892 1 95.94 48.9405 18.6701 1.90735 3.75961 -6.35358 6.73202 
446 1 95.94 49.3998 20.5967 3.55956 5.82161 9.22397 9.21695 
450 1 95.94 1.18125 22.7978 2.01134 4.39753 4.35357 1.2535 
4066 1 95.94 1.39258 24.9531 0.779293 2.02417 -3.52143 -4.68914 
276 1 95.94 31.7134 -0.495743 8.37764 10.1731 -7.70518 -11.9717 
4036 1 95.94 3.81438 21.5779 1.41679 -10.5579 -1.79376 -6.91385 
7940 1 95.94 4.04225 24.3103 1.94014 6.92018 4.28336 -3.21639 
197 1 95.94 6.25479 23.7577 1.07038 3.88871 -0.407249 0.945357 
198 1 95.94 9.52115 22.7639 2.87971 13.3429 2.41613 0.175881 
3976 1 95.94 9.19985 24.4247 0.685738 3.66715 -10.2531 -0.138721 
2106 1 95.94 40.9848 3.40249 25.1925 5.81479 5.02593 1.1538 
4041 1 95.94 12.4582 21.3646 2.43295 -3.59845 2.00116 -8.85535 
199 1 95.94 12.4276 23.9268 2.45569 3.84273 -0.367762 4.8503 
203 1 95.94 15.2586 25.0273 0.737157 -0.602734 1.39338 4.34972 
4393 1 95.94 17.2246 23.906 2.27487 1.30328 -2.25051 4.35275 
202 1 95.94 14.7748 22.3275 0.715412 -1.08947 -2.41502 10.9896 
712 1 95.94 21.122 21.3752 1.73281 9.14596 -5.88097 -3.57587 
33 1 95.94 47.5779 4.50281 0.201654 2.62799 -0.085126 -7.61899 
205 1 95.94 20.4559 23.8558 2.10792 7.73872 5.66528 -4.57123 
5321 1 95.94 12.7871 1.06582 12.7967 -3.04519 3.03431 1.47903 
498 1 95.94 23.9145 21.9576 0.640938 -6.8164 10.4739 6.23167 
174 1 95.94 23.0302 24.1253 1.98185 -4.36627 1.76731 -10.9592 
55 1 95.94 33.7328 10.5622 0.556261 -9.1785 0.641597 1.10234 
4113 1 95.94 24.7767 22.4976 3.20547 7.98948 -7.20346 1.91051 
4115 1 95.94 28.5948 24.3994 1.1607 -5.50339 0.326713 -0.137014 
464 1 95.94 26.5992 23.0444 0.264651 -0.997521 -2.12523 -0.29713 
243 1 95.94 31.1263 24.295 0.992386 -0.831189 7.80526 -12.0131 
501 1 95.94 30.0293 21.8543 4.45502 -0.287525 2.42988 2.83328 
4119 1 95.94 32.0702 22.4063 2.47887 -12.526 -2.27123 5.25844 
7704 1 95.94 33.725 23.4862 0.602158 9.0844 2.90109 7.50061 
504 1 95.94 36.0056 22.5646 2.15972 0.0672404 -7.60613 2.23975 
218 1 95.94 38.505 24.5302 0.515322 1.82576 7.13456 -2.40531 
3550 1 95.94 43.3861 23.2627 0.344237 -1.07411 2.34649 -4.45349 
188 1 95.94 43.7309 23.9299 2.69992 -2.66359 1.03949 -1.22879 
7962 1 95.94 40.9371 24.2031 2.25584 0.206825 4.42909 -0.0847938 
255 1 95.94 46.1846 22.9334 0.50944 -1.78628 3.31747 0.735647 
5869 1 95.94 17.6774 -0.248697 20.812 -3.30866 -3.13041 1.25526 
1026 1 95.94 1.03288 -0.29364 18.2641 -3.59304 -4.21646 19.4751 
225 1 95.94 50.7649 23.7269 0.0908306 -4.61242 -0.375124 -10.4698 
732 1 95.94 48.8194 23.0922 1.65583 3.25 -0.052683 7.55539 
222 1 95.94 50.8006 24.3416 2.93557 2.17015 0.464672 0.911785 
4863 1 95.94 -0.248958 3.23205 3.09184 0.0944444 -0.0336823 3.54007 
575 1 95.94 1.9095 1.42439 5.23036 5.43959 -2.92553 1.61802 
771 1 95.94 3.49972 3.37493 6.35093 -6.4345 1.30858 5.11153 
2 1 95.94 0.504775 3.70144 6.17344 -4.00961 0.340079 -7.76878 
4578 1 95.94 4.50617 1.81529 4.04401 0.0337162 -0.118616 4.84818 
258 1 95.94 4.64025 3.08086 8.43417 0.381925 10.9056 -1.21698 
262 1 95.94 7.14142 3.7444 3.82442 -5.91016 3.57072 2.2585 
549 1 95.94 6.41105 1.86693 6.09696 -7.21847 -4.24329 -13.4469 
520 1 95.94 7.51081 0.955888 3.71929 -0.00127533 2.92737 -0.198384 
775 1 95.94 10.9781 1.27753 4.74221 -2.03832 -11.9357 -1.85412 
405 1 95.94 34.3016 14.9451 -0.156416 2.2278 5.92363 -3.60639 
328 1 95.94 13.503 1.81728 4.43343 -0.0971183 3.21487 4.43709 
5322 1 95.94 12.3059 0.871849 7.22838 4.68631 -0.567029 3.60813 
5099 1 95.94 16.3921 0.864219 5.10705 3.17606 2.89847 2.71043 
556 1 95.94 17.7362 1.27379 6.97312 -0.842433 -7.18816 -4.8647 
811 1 95.94 15.6178 3.03712 6.1334 2.79187 4.86754 3.29869 
1530 1 95.94 42.7835 25.1567 11.8497 -1.25328 -9.92451 8.60446 
815 1 95.94 20.2483 2.64311 5.58062 -1.60085 -5.68666 -5.66841 
4815 1 95.94 19.1814 0.470405 4.75407 -4.84515 -0.139866 -5.4961 
530 1 95.94 22.9538 1.69591 4.13284 5.45612 -9.67536 2.12753 
338 1 95.94 25.8688 2.01599 3.93662 5.67455 -1.36183 6.10378 
534 1 95.94 28.1399 2.0236 3.66093 -3.26739 -3.04258 -5.10662 
3740 1 95.94 46.753 13.0909 -0.293718 6.28741 2.27217 1.02502 
6169 1 95.94 40.1936 22.8336 24.8679 -4.64446 -1.40865 4.46297 
4344 1 95.94 30.8569 1.68166 3.8777 -3.04472 3.45948 -2.7824 
4851 1 95.94 33.0063 0.30015 5.56768 -0.265942 0.288926 4.95948 
531 1 95.94 30.3281 1.85004 6.48175 4.50702 -1.61788 8.81397 
277 1 95.94 33.3047 2.87472 4.80774 -2.19471 -0.235687 -4.1291 
20 1 95.94 33.5997 1.49712 2.9371 -2.21144 0.382299 0.0142192 
4599 1 95.94 35.3546 1.53203 6.31256 -1.51825 -1.19267 1.02567 
571 1 95.94 38.7368 1.71106 3.42107 4.63664 5.1379 0.881096 
603 1 95.94 41.0612 3.38569 2.98875 -1.88966 0.0629938 2.11837 
3933 1 95.94 42.7844 1.84737 5.12997 -5.6716 2.20095 6.08907 
4347 1 95.94 40.8112 0.416734 5.79717 -6.22405 2.77941 -3.80075 
316 1 95.94 40.1379 3.22771 5.86809 6.87741 1.59195 3.6618 
543 1 95.94 47.8248 2.4135 4.4165 8.91312 -3.6612 4.51172 
284 1 95.94 45.5327 0.126858 4.64103 -4.55656 6.86604 -0.0679619 
27 1 95.94 47.2284 2.48612 1.87699 2.49187 -2.75686 9.70628 
801 1 95.94 45.9041 3.02722 6.02251 -1.61044 7.44284 0.808004 
576 1 95.94 50.1824 2.11709 5.25137 -6.61008 -1.98397 -10.2116 
87 1 95.94 37.2913 13.6021 0.144728 -1.35236 -0.989512 3.46068 
290 1 95.94 1.61908 5.64402 5.07704 -9.22089 -5.1292 -0.567584 
897 1 95.94 3.79778 5.76005 6.62533 -4.60011 0.250466 -0.586497 
548 1 95.94 4.40308 5.04855 4.07125 -8.46521 -3.62745 1.31018 
613 1 95.94 6.01142 4.28796 6.75322 3.72376 2.47786 -6.49457 
550 1 95.94 8.97776 4.60725 5.73096 0.587881 2.17806 5.42759 
618 1 95.94 6.95547 6.54632 4.37374 -2.7909 7.12178 -13.4078 
4582 1 95.94 11.6785 4.32258 4.73619 -1.31693 4.14921 2.57191 
103 1 95.94 10.4349 6.70064 4.54275 -3.09194 -4.29338 4.01457 
843 1 95.94 18.1518 3.3306 4.28128 -4.50539 -0.0903946 -1.43162 
808 1 95.94 14.4641 6.13294 7.00255 -0.561374 -14.629 -5.1799 
295 1 95.94 14.0389 4.90694 4.68802 -0.530602 -4.1199 7.26784 
4842 1 95.94 17.1124 5.85301 5.90997 -2.25236 0.174139 -7.43319 
529 1 95.94 20.9188 4.60521 3.47365 -8.91768 -14.4607 2.90043 
141 1 95.94 18.0589 5.81365 3.50054 -3.79976 0.49297 -1.34383 
619 1 95.94 20.0588 5.5561 6.18845 4.47532 -3.94167 -5.80689 
302 1 95.94 23.8734 4.05597 3.19265 -6.00189 1.67201 9.3589 
331 1 95.94 25.1889 3.81525 5.47872 11.4912 -7.19686 2.74096 
336 1 95.94 23.0226 6.16897 4.6176 3.79106 9.40963 5.29503 
46 1 95.94 26.364 4.47263 2.98415 -2.12013 1.76825 5.56188 
564 1 95.94 27.7609 4.2162 4.93105 -4.49072 10.013 -4.15597 
597 1 95.94 25.7847 6.44842 5.02891 -3.07901 -3.31186 1.76001 
596 1 95.94 28.2673 7.16023 4.30884 -3.1453 0.395233 -5.74432 
85 1 95.94 30.6749 6.54621 3.31894 9.35256 -7.62992 -4.52959 
56 1 95.94 30.5501 4.17121 5.11688 -1.82777 -5.44359 3.10208 
567 1 95.94 32.9594 5.78389 5.66241 -1.87784 12.3595 7.4473 
540 1 95.94 35.8154 4.88513 4.48231 -6.45245 -8.59866 1.99091 
1107 1 95.94 34.5852 4.14119 6.89425 -1.93541 -1.60036 4.08496 
57 1 95.94 34.0816 6.16017 2.9149 2.17899 5.84385 7.82329 
536 1 95.94 37.2311 3.3528 6.24951 -1.64703 5.40955 -9.14526 
601 1 95.94 38.2645 4.12085 4.05568 0.534248 -4.04397 4.28416 
825 1 95.94 38.5144 6.64297 5.33536 1.06757 0.0418489 -0.570697 
570 1 95.94 42.643 4.42514 6.21026 -1.66125 -3.12398 0.542125 
317 1 95.94 43.8595 4.46698 3.78153 -1.72906 2.3392 3.00757 
858 1 95.94 41.1682 5.6499 4.37897 3.95682 0.931455 -4.69172 
315 1 95.94 46.6679 5.17612 4.14266 -7.94907 -5.68511 -3.24602 
61 1 95.94 45.6446 5.50456 6.33543 1.36933 -9.87887 -0.771809 
318 1 95.94 46.281 7.90764 4.48498 11.5983 3.91615 -0.718811 
579 1 95.94 50.8581 5.34917 5.27315 2.64094 5.60751 -8.13277 
859 1 95.94 48.5285 4.60841 6.13618 3.70032 -0.445671 -1.70944 
578 1 95.94 1.41243 9.90663 2.85463 -5.96863 -6.49938 -8.63071 
67 1 95.94 -0.349946 7.76033 4.11285 -2.0923 1.9891 1.45312 
320 1 95.94 2.47372 8.24019 5.37013 -1.12912 12.8942 9.7923 
385 1 95.94 0.346046 9.87409 5.21138 11.5627 -2.57784 -12.7695 
421 1 95.94 2.99826 10.9959 5.53622 3.1971 0.900905 3.08843 
582 1 95.94 5.2262 8.21815 4.63727 -5.75297 3.55425 3.99405 
355 1 95.94 3.81236 9.95129 3.30954 4.30965 6.64094 -1.23387 
388 1 95.94 6.21067 10.6063 5.19826 5.26888 5.74626 3.61635 
611 1 95.94 4.34084 8.96149 6.97265 -0.280303 2.3257 2.57178 
390 1 95.94 7.77191 8.94124 3.57457 2.66105 8.06832 -1.61117 
422 1 95.94 10.5809 7.88527 7.23551 -6.43364 -7.6684 -1.75299 
358 1 95.94 8.2205 8.54953 5.89216 0.79927 -1.72726 -6.6764 
836 1 95.94 9.16974 10.6356 6.97013 -4.67103 12.0191 -7.66994 
361 1 95.94 13.6012 9.64379 3.72892 -4.98965 -1.54082 -1.46715 
70 1 95.94 12.8621 7.79024 5.59779 5.51676 1.51124 0.543833 
391 1 95.94 12.3494 10.4033 6.87697 -6.02864 2.02151 0.789435 
3882 1 95.94 15.8327 7.73921 4.85984 -9.21163 -3.69574 5.75286 
335 1 95.94 14.8939 9.85711 6.42756 4.04622 0.731909 4.26126 
334 1 95.94 20.7535 7.30099 3.97742 -10.4477 -1.90855 3.27311 
332 1 95.94 18.3682 8.64353 2.80411 2.47896 -4.94797 0.967783 
363 1 95.94 18.2991 7.78606 5.92719 -0.1601 -4.88456 4.46224 
364 1 95.94 19.9791 9.94282 5.28962 5.87442 3.0671 -3.25394 
78 1 95.94 21.298 9.76151 2.59509 -1.79219 -8.61262 0.927207 
3981 1 95.94 23.6276 8.89969 3.51549 -7.95096 3.29404 3.13729 
622 1 95.94 21.5067 7.86145 6.55408 -3.30432 -5.27909 -3.33218 
1104 1 95.94 26.8129 9.07604 3.94871 -1.86979 4.7713 -3.24531 
599 1 95.94 30.411 7.27368 5.95179 -1.66583 -10.5532 4.8981 
566 1 95.94 30.7083 9.49209 4.11616 2.07177 3.56701 -0.0851341 
118 1 95.94 32.8043 7.96251 3.65991 -2.82689 -5.03961 1.36778 
850 1 95.94 31.1554 10.6952 6.71084 1.83986 1.06284 -1.95611 
565 1 95.94 33.0229 8.27949 6.78045 -2.39797 -2.08573 -6.25436 
563 1 95.94 35.1156 8.75867 4.61423 1.79025 -6.53057 -3.19049 
54 1 95.94 35.7967 7.27405 6.6204 -0.586971 -3.06865 -2.80898 
341 1 95.94 36.3225 10.0864 6.82308 7.054 5.83151 -4.2523 
24 1 95.94 37.8991 8.89206 5.31438 7.87691 1.59007 -3.42866 
349 1 95.94 40.83 7.77638 6.09398 5.15719 8.58693 -3.97562 
347 1 95.94 43.5505 6.73269 4.9952 4.82953 1.30044 -12.965 
602 1 95.94 41.6123 10.416 6.32618 -10.3657 -2.06623 -7.14198 
636 1 95.94 44.2577 9.32985 5.13553 -1.64135 1.97918 3.70291 
702 1 95.94 46.8972 10.1047 5.02039 3.02865 1.06812 3.48579 
3864 1 95.94 48.7061 7.03062 4.1462 -1.70623 0.0720342 -0.886452 
322 1 95.94 50.2927 6.0421 2.14211 -6.5567 6.67928 3.57725 
415 1 95.94 50.6903 9.94683 2.95983 13.1159 4.52842 -9.82634 
351 1 95.94 49.5758 9.80096 5.24058 9.88395 0.328606 9.34722 
321 1 95.94 49.9032 7.53354 6.77479 -1.4446 -5.38179 3.94785 
641 1 95.94 1.2768 12.8637 5.62 -2.29114 1.75267 -2.42153 
194 1 95.94 6.35797 12.8701 4.54017 0.286445 -3.08967 6.4137 
610 1 95.94 3.74013 12.5868 3.39394 -5.46851 -4.50393 7.02683 
451 1 95.94 4.11415 13.9007 5.43934 0.517954 -1.96752 2.87885 
323 1 95.94 5.07364 12.5085 7.59911 -8.15868 2.92799 -3.50626 
133 1 95.94 8.60519 11.4792 4.52592 0.725737 0.657808 1.94494 
455 1 95.94 10.6189 12.4319 5.90794 0.810674 1.50957 -4.36209 
644 1 95.94 7.97524 12.404 7.51887 8.59113 4.33377 -7.57333 
74 1 95.94 10.8483 9.7909 4.7166 2.76291 -1.78314 -1.80088 
104 1 95.94 11.3421 12.0258 3.4467 2.19828 -1.01646 -10.3678 
137 1 95.94 13.5992 12.1799 5.45742 -9.74701 1.4232 11.3343 
360 1 95.94 16.0027 11.8859 4.7695 4.73219 7.63678 2.91431 
396 1 95.94 15.8937 12.8352 6.93062 3.97192 7.11034 2.9618 
366 1 95.94 18.2863 11.4077 3.43637 -1.20958 4.90389 5.45402 
369 1 95.94 18.6446 12.6685 5.76586 -5.28885 -4.18212 -3.36502 
304 1 95.94 20.8461 12.2381 4.41034 -8.54461 -1.22231 -5.12811 
947 1 95.94 22.8464 11.8564 3.1595 1.51173 5.08032 2.30756 
114 1 95.94 22.7739 10.0453 5.57708 -2.85169 1.75074 -8.78579 
913 1 95.94 25.1092 11.4235 4.02963 5.6981 5.47916 -7.75396 
912 1 95.94 23.6913 12.8315 5.71492 4.5799 13.655 1.97497 
594 1 95.94 27.6123 12.1828 2.01477 -5.3427 -2.74247 -5.05128 
1137 1 95.94 26.5112 11.7724 6.40383 -1.35527 1.20445 8.8645 
911 1 95.94 27.2908 13.4834 4.53357 -2.93156 -6.21936 0.259525 
628 1 95.94 31.6133 12.25 4.6746 0.285456 10.54 -1.63637 
626 1 95.94 33.8209 14.088 6.13664 2.2325 -2.30317 3.35081 
691 1 95.94 28.763 11.1093 4.65757 7.20733 6.08 -12.1954 
374 1 95.94 33.6069 10.9207 5.83686 7.69392 6.54773 -0.761529 
855 1 95.94 36.2198 11.1645 3.92405 0.388332 -3.36205 4.1309 
3992 1 95.94 36.2 14.1383 4.32824 0.92207 -1.42403 0.939026 
659 1 95.94 33.8474 13.0096 3.88463 6.83393 -0.212111 4.97765 
342 1 95.94 35.7134 12.5855 6.30092 4.33181 -4.34926 1.8135 
573 1 95.94 39.3854 10.4046 7.75695 -3.81065 -6.87054 1.22853 
117 1 95.94 38.0093 12.381 5.21751 6.23511 -6.33019 -6.65828 
344 1 95.94 40.4892 12.7362 7.30664 -5.2856 -5.37073 -4.41006 
439 1 95.94 38.855 14.9221 5.62251 0.859381 0.790447 -3.6349 
152 1 95.94 42.7064 11.4996 3.52854 -5.45176 -3.95518 2.0686 
633 1 95.94 40.6144 13.1107 4.56565 4.18574 6.79833 -0.0156391 
1114 1 95.94 43.0678 12.6711 6.56208 2.7132 -1.22748 -2.2567 
154 1 95.94 43.5616 14.3458 3.92264 -1.63201 7.7568 5.24366 
383 1 95.94 45.1497 12.1816 4.41183 -2.89816 -5.39708 -7.73973 
348 1 95.94 46.0431 13.1788 6.744 -1.33291 4.15644 6.84221 
634 1 95.94 46.2176 14.4572 4.63901 -1.76632 1.63987 2.29527 
607 1 95.94 47.8814 11.7575 6.69361 -4.75262 4.02737 0.847335 
447 1 95.94 48.5306 12.0251 4.0139 2.40515 -1.09947 -0.606467 
639 1 95.94 50.8188 12.4335 5.34905 5.89589 14.6181 3.78422 
414 1 95.94 48.4598 14.2529 6.86425 -5.44984 -0.983337 -6.56143 
673 1 95.94 1.79888 14.9201 4.18005 -2.82879 3.76116 1.20655 
480 1 95.94 0.0214139 16.4756 5.2366 3.27719 0.395635 6.85415 
477 1 95.94 0.433625 16.9884 7.55251 3.36041 1.11702 -1.33609 
416 1 95.94 -0.227222 14.4474 6.70442 -5.18828 -7.71221 5.72879 
927 1 95.94 2.17498 15.2321 6.91547 -8.94404 -0.390532 -4.58301 
449 1 95.94 4.39137 16.3703 5.79677 5.14599 3.99321 -0.233655 
708 1 95.94 4.04324 15.6081 3.26111 3.69641 -3.26947 -2.87934 
674 1 95.94 6.8555 18.0258 5.0843 0.765459 -0.373888 -3.4622 
677 1 95.94 6.86961 15.1313 6.22027 -1.0372 -2.02862 0.535064 
930 1 95.94 9.03677 14.5809 5.21732 3.61932 2.12096 -2.96715 
967 1 95.94 9.05273 17.3938 3.9107 5.05031 3.76979 0.801902 
903 1 95.94 11.2361 16.4239 5.50221 -2.23942 9.06826 1.28208 
3914 1 95.94 12.7276 14.1842 4.5799 -11.6394 3.33897 6.9278 
681 1 95.94 13.5049 17.8231 5.44566 -2.62386 -2.72032 0.954629 
394 1 95.94 15.1847 16.8929 3.7956 -3.54093 2.955 4.65045 
3950 1 95.94 16.7987 14.7897 4.43254 -3.81654 -1.84086 0.415624 
910 1 95.94 14.7553 15.5502 6.09069 4.87148 3.01416 4.75217 
589 1 95.94 17.602 15.602 6.72777 9.7533 -6.67279 -5.84006 
3980 1 95.94 18.0905 16.7775 3.77244 3.47255 -3.78059 -5.65068 
655 1 95.94 19.7906 14.9366 5.68981 0.596256 -4.73385 3.01417 