ITEM: TIMESTEP
0
ITEM: NUMBER OF ATOMS
2048
ITEM: BOX BOUNDS pp pp pp
1.208 21.584
2.09232 37.3846
1.97266 35.2465
ITEM: ATOMS id type mass x y z vx vy vz 
4 1 58.71 1.35928 3.65495 4.16265 7.66596 -0.466525 -5.6739 
8 1 58.71 3.86887 3.6821 4.06908 -7.4773 -5.11465 -5.2213 
6 1 58.71 5.23887 4.41456 2.14825 3.93289 -11.719 8.1148 
12 1 58.71 6.18904 3.50392 4.18574 -0.842333 -5.61037 -2.31238 
16 1 58.71 8.9597 3.42557 4.18875 6.54678 -1.86772 5.78392 
20 1 58.71 11.5781 3.76388 4.15374 5.64259 3.48432 2.17492 
22 1 58.71 15.5504 4.37978 2.03521 2.85946 -1.05294 2.22423 
24 1 58.71 14.3457 3.86991 4.15267 -3.43965 4.82852 -1.79818 
25 1 58.71 17.049 2.22085 2.05372 0.1295 -2.4001 -3.18282 
28 1 58.71 16.6979 3.73711 3.93681 -5.21752 4.38144 -4.40096 
29 1 58.71 19.2912 2.11895 2.15503 2.00207 2.82083 -4.71341 
30 1 58.71 20.3055 4.16908 2.19153 3.75022 4.87809 6.35196 
32 1 58.71 19.0339 3.29025 4.05461 -1.79394 3.06849 -6.06151 
3 1 58.71 2.44327 5.6711 3.90922 -5.53446 6.78802 -0.164218 
33 1 58.71 1.26205 6.49653 2.1668 -3.11788 2.29582 0.00523007 
36 1 58.71 1.21152 7.92966 4.21274 -1.14007 -6.01822 6.8405 
40 1 58.71 3.85496 7.90568 4.02981 5.30018 -7.91757 2.9036 
7 1 58.71 5.26521 5.94572 4.06625 4.33187 3.69514 4.47863 
11 1 58.71 7.63395 5.75601 4.1019 6.56439 3.51711 -1.77675 
45 1 58.71 8.71622 6.49612 2.3117 7.13432 -7.40735 -4.12711 
15 1 58.71 10.1868 5.72313 3.98722 5.1562 0.0792335 -0.35088 
19 1 58.71 12.8118 5.94094 4.45579 -1.65897 1.43454 0.809473 
23 1 58.71 15.4464 5.79304 4.10646 -1.0271 -6.43475 -1.19681 
53 1 58.71 14.0576 6.33867 2.29907 -10.3777 -1.01803 5.66763 
27 1 58.71 17.7433 5.78259 4.46638 2.33902 4.58414 -4.80734 
57 1 58.71 16.7626 6.58509 2.24353 5.36957 4.77984 7.68014 
31 1 58.71 20.3274 5.66752 3.93036 2.70172 -12.1646 -4.58556 
61 1 58.71 19.0796 6.49969 2.11522 -3.12814 -7.64797 2.79222 
64 1 58.71 19.117 7.86414 4.17663 -0.519849 -3.38744 3.57096 
34 1 58.71 2.57626 8.58838 2.33452 3.56446 -0.470156 -4.81989 
35 1 58.71 2.39742 10.0485 4.02098 0.579633 -0.540058 2.05407 
38 1 58.71 5.02498 8.95108 1.97864 1.54217 1.75431 -4.71462 
39 1 58.71 4.93776 10.2334 4.23565 -1.83559 1.44686 6.67411 
44 1 58.71 6.45241 8.34885 3.92714 -3.32157 -4.26283 3.73008 
43 1 58.71 7.47703 10.5038 3.95916 -5.89208 0.411747 1.34129 
48 1 58.71 8.79885 8.31155 4.23094 1.62663 1.9709 -3.03986 
47 1 58.71 10.1571 10.2174 4.13698 1.06829 3.39901 4.91851 
51 1 58.71 12.7725 10.2546 4.0156 -3.19518 -9.64503 3.95866 
52 1 58.71 11.3476 8.09066 4.2175 2.29476 2.14483 -1.46874 
54 1 58.71 15.3799 8.77836 1.99246 0.360218 3.36215 -1.16577 
55 1 58.71 15.3277 10.4039 3.88871 -3.81475 2.11302 3.78528 
56 1 58.71 13.8036 8.29411 3.80631 1.03332 -2.80491 -0.338484 
85 1 58.71 14.0791 10.9128 2.04608 -3.08193 0.902301 -1.61485 
59 1 58.71 18.0717 10.0995 3.83422 -2.80176 -7.76937 -0.431724 
60 1 58.71 16.5145 8.2721 4.3052 -0.67926 -1.5407 -2.87054 
89 1 58.71 16.906 10.7892 1.98803 7.63099 -5.30026 7.6144 
62 1 58.71 20.1409 8.63683 2.21947 -6.17588 -4.00464 2.62902 
63 1 58.71 20.5302 10.1087 4.05705 -5.31429 -2.43487 -7.2234 
68 1 58.71 1.25521 12.4653 4.05295 4.91064 2.11632 -3.44587 
69 1 58.71 3.75586 10.9808 2.15624 -2.22735 1.58605 -5.06711 
72 1 58.71 3.86628 12.2475 4.24994 2.41644 -3.92556 -0.837764 
66 1 58.71 2.70302 12.9134 2.03104 2.46739 2.74452 -0.659092 
76 1 58.71 6.26971 12.5754 4.10621 -4.41157 -10.3294 0.750282 
70 1 58.71 5.35762 13.3783 1.99116 -2.06065 -3.32958 -9.28209 
80 1 58.71 9.0114 12.4311 3.99614 9.64561 -6.68566 -11.7228 
84 1 58.71 11.6086 12.2212 4.13391 6.25092 2.86617 -0.802118 
78 1 58.71 10.507 13.1069 2.24206 1.79477 -3.27424 -2.889 
88 1 58.71 13.8922 12.3776 3.89823 -2.65613 1.62604 6.44792 
82 1 58.71 13.0046 13.2902 1.97742 -2.35718 4.80621 0.21687 
92 1 58.71 16.6113 12.3791 3.83682 4.77357 2.03723 -1.91163 
90 1 58.71 17.7542 13.2188 2.30314 1.24882 2.19231 2.11182 
96 1 58.71 19.1347 12.5675 4.05527 -7.21193 5.70922 0.03952 
94 1 58.71 20.2998 13.1764 2.04479 -2.91386 5.42549 -4.4848 
67 1 58.71 2.36666 14.4989 4.0324 -0.55461 -5.26605 0.862924 
104 1 58.71 3.53389 16.7734 4.19131 -7.21689 1.5703 0.842731 
101 1 58.71 4.12017 15.3489 2.29736 -2.69971 -0.84364 0.0239185 
71 1 58.71 5.01348 14.7348 4.30524 -1.70694 0.997739 -1.41148 
105 1 58.71 6.54323 15.3903 2.04106 4.64193 -0.73537 -2.53843 
75 1 58.71 7.58526 14.7021 4.15576 0.35957 -8.21579 2.61212 
109 1 58.71 8.79639 15.6573 2.13919 2.05854 3.18848 6.41208 
112 1 58.71 8.81599 16.7653 4.23579 -3.91806 -3.58877 -0.752884 
79 1 58.71 10.1869 14.7681 4.17225 1.2552 0.930406 2.04391 
83 1 58.71 12.6552 14.4657 4.12248 -2.17264 -5.45145 -1.62781 
113 1 58.71 11.3455 15.4057 2.18301 -1.25499 -1.3187 -0.962147 
87 1 58.71 15.112 14.3567 4.09227 4.27024 6.65331 2.78599 
120 1 58.71 13.8763 16.6261 4.15634 -3.29823 -1.85583 -2.77146 
91 1 58.71 17.6357 14.7857 4.13435 -4.87127 3.3541 -1.3042 
121 1 58.71 16.5515 15.2407 2.05711 1.90934 8.46057 2.26226 
95 1 58.71 20.4365 14.7476 4.25635 -0.58374 -2.98113 -6.08444 
125 1 58.71 18.9769 15.3747 2.26604 -1.82436 3.47703 0.414481 
98 1 58.71 2.37991 17.5018 2.03427 4.40063 -2.64853 -0.708388 
99 1 58.71 2.49362 18.907 4.04317 -4.24493 5.56588 -5.85197 
108 1 58.71 5.9743 16.8928 4.0036 -0.373464 -1.89467 6.43894 
103 1 58.71 5.04739 19.1812 3.97988 6.33962 -1.6904 0.293576 
137 1 58.71 6.36506 19.6565 2.03522 1.59289 -4.39729 1.42984 
107 1 58.71 7.6513 18.9095 4.27025 1.84757 -0.713155 3.8401 
110 1 58.71 10.1845 17.7327 2.02525 -1.58971 3.75946 -5.46241 
116 1 58.71 11.1944 17.1108 4.17404 2.72647 1.2905 -2.94953 
111 1 58.71 10.1081 19.1277 4.23841 -6.19465 -1.01732 -4.59907 
115 1 58.71 12.6327 19.0326 4.06601 -9.17803 5.68257 -4.29332 
145 1 58.71 11.3635 19.5744 2.14889 2.72534 -2.75663 -1.4389 
118 1 58.71 15.1205 17.766 1.98307 2.79572 -2.9192 9.11729 
119 1 58.71 14.9024 18.8938 4.31911 4.64781 -1.64428 -1.83381 
122 1 58.71 17.7867 17.6212 2.19679 0.985858 -2.25396 2.38698 
124 1 58.71 16.2121 16.9471 3.99918 -3.08262 -2.2656 1.59251 
123 1 58.71 17.2967 19.2113 4.11464 -4.12706 -0.820417 -1.62638 
100 1 58.71 21.4936 16.8062 3.97831 1.17867 -3.66398 -10.087 
128 1 58.71 19.1215 16.9182 3.84872 1.82953 9.27623 -1.40709 
127 1 58.71 20.2436 19.0816 3.97394 -2.89662 -3.86347 3.93701 
129 1 58.71 1.28609 19.7713 2.052 -0.63073 2.95632 -0.446248 
133 1 58.71 3.89142 19.9254 2.01563 3.90529 -1.09989 2.51781 
136 1 58.71 3.76273 21.2268 3.88293 0.246532 -3.21596 0.751983 
140 1 58.71 6.46658 21.2507 4.15685 -6.42419 -8.65858 -4.51592 
141 1 58.71 8.92517 19.7536 1.99133 -0.950012 5.05012 1.91432 
138 1 58.71 7.78215 22.1802 1.98706 2.86614 -8.006 -4.07587 
144 1 58.71 8.75999 21.3183 3.97152 -2.73296 8.91339 -0.617775 
142 1 58.71 10.3185 21.9022 2.08417 -1.28934 3.01951 6.68221 
146 1 58.71 12.7027 21.9029 2.09978 -0.884512 1.48289 1.29057 
148 1 58.71 11.1981 21.2557 4.26913 2.65619 4.80736 1.91192 
149 1 58.71 13.8944 19.84 2.00789 -1.33558 10.1752 -1.90531 
150 1 58.71 15.0926 22.0872 2.26475 -5.52232 -3.68502 -5.4097 
152 1 58.71 13.8149 21.0745 4.31015 2.66124 -4.83079 7.15221 
156 1 58.71 16.594 21.4732 4.24691 2.36588 -1.13786 -3.28665 
157 1 58.71 18.896 20.0408 2.0885 0.903883 1.4083 -1.61599 
132 1 58.71 21.3982 21.474 3.8219 0.555838 -5.2224 2.84954 
160 1 58.71 18.9838 21.3588 3.90996 -2.66015 3.83182 4.13353 
131 1 58.71 2.45573 23.4197 3.96695 3.66373 -1.85031 5.17876 
168 1 58.71 3.48707 25.6152 3.84004 4.6508 -3.13366 -0.5457 
135 1 58.71 4.83512 23.5241 3.95063 7.58031 3.40615 2.0044 
172 1 58.71 6.12353 25.4113 4.30009 -0.381647 -6.162 9.07116 
139 1 58.71 7.54815 23.6598 4.20924 -2.26306 13.1878 0.204358 
143 1 58.71 9.88895 23.3901 3.87063 -1.54066 -5.04662 -1.75713 
176 1 58.71 8.92593 25.5929 4.10494 -4.69896 -0.491132 -2.61417 
147 1 58.71 12.5688 23.4748 3.93301 1.31285 -0.27065 -2.49891 
180 1 58.71 11.2593 25.5051 3.87082 1.97121 -4.72068 -11.7226 
151 1 58.71 15.1281 23.6118 4.40706 -1.82927 3.02373 0.338616 
181 1 58.71 14.0857 24.2234 2.08479 4.4557 1.94432 6.71532 
155 1 58.71 17.5814 23.4731 4.00681 -5.64754 -5.68522 5.28494 
159 1 58.71 20.2052 23.5969 4.17307 -0.298171 0.132922 -1.85402 
161 1 58.71 21.5296 24.0112 2.08325 1.68321 -1.69337 -3.71867 
163 1 58.71 2.2856 27.8478 3.76065 -3.59644 -1.15153 -4.70831 
197 1 58.71 3.58439 28.3655 2.01805 -2.04091 -3.84043 5.85541 
166 1 58.71 4.96911 26.3744 2.14031 2.40196 4.98706 -1.41689 
167 1 58.71 4.65508 27.5267 4.2409 5.54068 -0.338559 -0.258883 
170 1 58.71 7.46404 26.4398 2.11704 3.83619 -0.633102 -1.0675 
171 1 58.71 7.24969 27.6932 4.23408 -8.19384 0.0128064 6.77352 
175 1 58.71 9.81284 28.0108 4.14229 0.376952 2.18687 -0.255822 
178 1 58.71 12.628 26.5768 2.06953 0.790979 -3.23121 -0.74321 
179 1 58.71 12.4337 27.7674 4.32664 6.86873 4.97574 -0.8125 
209 1 58.71 11.2136 28.4125 2.01585 3.91209 1.88738 -1.66142 
184 1 58.71 13.6013 25.7078 4.01268 6.74986 -4.82286 5.95445 
183 1 58.71 15.1085 27.6984 4.03631 -1.82853 -5.42301 -3.35538 
213 1 58.71 13.8265 28.3851 2.23686 -0.42037 -1.64226 -2.4317 
186 1 58.71 17.6857 26.3756 2.01326 8.56431 5.48214 -4.07082 
188 1 58.71 16.0912 25.6516 4.40443 -3.61268 -0.377738 -0.359687 
187 1 58.71 17.6178 27.6403 3.99421 -3.8549 -5.04422 -2.21021 
164 1 58.71 21.3752 25.6803 3.92057 -10.9059 4.39743 9.21693 
192 1 58.71 18.8138 25.7497 3.9847 -1.0374 -3.17661 4.2052 
191 1 58.71 20.055 27.7919 3.8939 3.6473 -0.657027 -0.0276259 
196 1 58.71 1.2543 30.0065 4.09769 -1.91758 -2.1098 -1.43417 
200 1 58.71 3.83956 30.1205 4.00108 0.949287 -0.255311 -8.10883 
201 1 58.71 6.32617 28.6453 2.0976 0.0794365 2.15505 -4.81747 
204 1 58.71 6.15094 30.2088 3.97184 6.86743 2.57196 6.85909 
205 1 58.71 8.76353 28.6171 2.1762 -9.11408 3.39506 -2.18203 
202 1 58.71 7.24638 30.8666 2.09372 -6.33729 0.0283052 -1.1143 
208 1 58.71 8.56559 30.0925 3.88916 -1.96901 -1.93656 2.58435 
206 1 58.71 9.95512 30.759 2.13765 5.80841 -2.11886 7.54408 
210 1 58.71 12.4529 30.6842 2.1032 -5.19809 -8.63931 -0.628083 
212 1 58.71 11.3975 29.9169 4.01272 1.25235 4.79478 -1.73102 
216 1 58.71 14.0773 29.9595 3.91919 -3.97716 0.630341 -0.804895 
218 1 58.71 17.905 30.8978 2.20299 3.25462 -0.251797 -2.36792 
220 1 58.71 16.5079 29.8418 4.12995 -0.876312 0.966671 5.84286 
222 1 58.71 20.2631 30.6658 2.11353 1.25727 0.853116 1.62834 
224 1 58.71 19.1737 29.7971 4.22449 1.27747 -1.29888 0.255729 
195 1 58.71 2.24368 32.3399 4.01939 -2.47404 -0.885719 1.76976 
225 1 58.71 1.27497 32.6548 2.07347 0.417152 -6.32448 6.27693 
228 1 58.71 1.3145 34.4232 4.0299 -4.17975 1.71169 -2.67004 
232 1 58.71 3.61602 34.2915 3.75485 -1.53116 -8.15989 -1.83229 
199 1 58.71 4.9483 32.3897 3.8512 -0.0723682 1.079 0.919746 
233 1 58.71 6.13785 32.8187 1.97822 -8.43086 1.31984 -1.52131 
203 1 58.71 7.53305 32.4935 4.2448 0.46267 2.762 2.85715 
237 1 58.71 8.73673 32.8783 2.20149 5.74735 -2.20278 5.67287 
207 1 58.71 10.1023 32.2013 3.95776 -5.14418 -1.28022 4.20206 
241 1 58.71 11.2666 33.0139 2.05346 -5.19747 1.48406 2.36233 
211 1 58.71 12.8713 32.2438 4.08186 -1.00933 -2.71702 3.61573 
215 1 58.71 15.1458 32.0728 3.9621 -4.13149 -6.9565 1.74193 
219 1 58.71 17.6633 31.9891 4.26882 1.65681 -1.09981 -0.119475 
249 1 58.71 16.597 33.0328 2.0497 4.48516 1.74679 2.50063 
252 1 58.71 16.4449 34.3122 3.98677 10.4966 4.73399 -14.5973 
223 1 58.71 20.2137 32.4523 4.28328 0.847415 9.47659 -2.08645 
253 1 58.71 19.2808 33.0055 2.19129 -1.11799 -2.36189 1.12901 
5 1 58.71 3.77857 37.2323 2.22194 2.37132 -0.06935 4.58595 
227 1 58.71 2.33752 36.7392 4.11797 10.6182 4.14006 -9.74617 
9 1 58.71 6.44076 37.1807 2.04234 -0.735173 4.82225 -0.574064 
236 1 58.71 6.21197 34.5837 3.86937 -3.47095 -5.05095 -3.79755 
231 1 58.71 5.10686 36.8014 3.95828 -2.76027 -9.52349 3.25004 
240 1 58.71 9.04708 34.4743 3.94602 1.51615 7.38438 -0.31013 
234 1 58.71 7.49496 35.0614 1.97729 6.00308 8.62042 -2.92177 
235 1 58.71 7.55606 36.4547 3.93616 -3.97923 2.01557 5.45413 
244 1 58.71 11.4171 34.5438 4.32228 3.26722 0.366824 0.737453 
239 1 58.71 10.2559 36.8413 3.99937 7.00793 -1.06694 -0.209697 
242 1 58.71 12.5239 35.0198 2.10036 -0.878202 -1.05452 1.10815 
248 1 58.71 14.0839 34.5642 4.1911 2.40542 -1.79376 -0.674998 
243 1 58.71 12.8943 36.889 4.07632 -2.12411 1.40873 3.83226 
246 1 58.71 14.9913 35.0438 2.08209 -6.58625 -11.7993 -0.326637 
247 1 58.71 15.1715 37.0222 4.02845 -2.34478 -7.11399 -8.6526 
251 1 58.71 17.5988 36.4828 4.25025 2.12551 6.78799 -2.69453 
256 1 58.71 18.997 34.6324 4.1003 0.668289 1.93977 0.191947 
254 1 58.71 20.4895 35.344 2.04241 -8.67182 0.619283 -1.71648 
255 1 58.71 20.4224 36.8446 4.2951 -2.85709 5.6362 -8.2968 
258 1 58.71 2.62059 4.18102 6.12288 -4.57768 4.54227 4.64879 
261 1 58.71 3.60968 2.13371 5.88023 -8.63902 -0.187261 -6.316 
262 1 58.71 5.08519 4.45917 6.2965 2.69557 5.76745 -2.95615 
266 1 58.71 7.46578 4.50452 6.16865 0.95619 1.70975 -6.59841 
269 1 58.71 8.59145 2.24543 6.19164 1.72259 1.73124 -7.61079 
270 1 58.71 10.0326 4.50749 6.43157 0.0170772 -2.18121 0.278964 
274 1 58.71 12.3209 4.22409 6.14268 -1.13509 5.73734 -2.89966 
277 1 58.71 13.7922 2.50818 6.1445 -1.11475 -0.135068 -7.68055 
278 1 58.71 15.3496 4.37094 6.0179 -0.945697 -0.495302 -2.52371 
281 1 58.71 16.3023 2.16097 6.13091 1.0752 -4.59491 -2.86955 
282 1 58.71 17.6331 4.05783 6.33757 -4.08659 4.04067 1.16763 
285 1 58.71 19.1224 2.11095 6.34608 -0.743086 5.16638 7.6484 
286 1 58.71 20.2069 4.23536 6.05773 4.93762 8.74733 -3.3163 
293 1 58.71 3.64604 6.58648 6.12661 -0.650859 7.01451 -1.26791 
297 1 58.71 6.22976 6.59979 5.89307 3.10866 -5.96198 -3.89319 
301 1 58.71 8.67977 6.60633 6.14299 3.91741 0.473017 -2.08713 
267 1 58.71 7.48144 6.10657 7.96985 -2.98545 -2.30549 0.836069 
305 1 58.71 11.1008 6.61527 6.17697 0.329831 -3.01811 0.995949 
309 1 58.71 14.0531 6.58864 6.17522 4.90745 0.268865 2.7003 
313 1 58.71 16.5575 6.44022 6.16935 6.14395 2.50323 -0.676475 
289 1 58.71 21.5795 6.17387 5.85724 4.72023 -4.80774 -9.11837 
317 1 58.71 19.0514 6.24828 6.27939 5.78007 2.61875 -1.30577 
290 1 58.71 2.64935 9.14704 5.98268 -0.771489 -6.04706 1.49817 
292 1 58.71 1.30712 8.09375 7.89174 -1.31087 7.59067 -5.01368 
294 1 58.71 5.02746 8.80287 5.95294 -1.68727 -1.25796 -0.71514 
298 1 58.71 7.46196 8.84442 6.02202 -3.40168 5.44118 5.44339 
333 1 58.71 8.75585 10.8661 5.96035 -4.3169 3.12089 -3.36048 
302 1 58.71 10.0447 8.66925 6.18984 -12.1757 -0.394954 5.48708 
337 1 58.71 11.6207 10.5664 5.95521 5.52429 -6.71005 -1.83159 
303 1 58.71 10.0688 10.3577 7.91759 -3.56329 2.1875 1.8127 
306 1 58.71 12.9657 8.63698 6.06468 -4.74264 -2.56172 3.48332 
310 1 58.71 15.3014 8.69345 6.29414 6.70916 0.307151 0.99075 
314 1 58.71 17.7112 8.70223 6.19778 2.41868 2.62241 -0.748986 
345 1 58.71 16.6239 10.9028 6.15897 3.2795 -1.09919 -2.09596 
315 1 58.71 17.8633 10.3371 7.93718 -1.37346 -4.07631 1.05136 
318 1 58.71 20.2649 8.92079 6.07163 -1.02753 -0.551812 -4.08525 
319 1 58.71 20.3326 10.3566 7.97366 2.53271 -3.70116 5.42534 
320 1 58.71 18.8682 7.99788 7.93021 0.169379 4.51905 0.0925371 
325 1 58.71 3.89823 11.2585 6.36621 1.14609 8.55465 -3.92028 
322 1 58.71 2.47696 13.2956 5.96145 3.85063 7.64084 -3.97969 
329 1 58.71 6.22296 10.9315 6.16618 0.562658 -2.55 1.54038 
326 1 58.71 4.91673 13.4558 6.25663 -3.74439 5.439 2.33628 
332 1 58.71 6.18436 12.4806 7.97112 -1.03219 -2.84318 -3.79875 
330 1 58.71 7.64014 13.1993 5.83865 -3.53928 -0.986631 3.12813 
336 1 58.71 8.82129 12.5131 7.97147 -1.62376 -5.16489 -5.41365 
334 1 58.71 10.0114 12.829 6.00759 2.88103 2.97595 -1.61339 
338 1 58.71 12.6215 13.2194 5.9865 9.3194 -2.7625 1.19393 
341 1 58.71 13.9876 10.9202 5.92998 -5.71774 -4.50441 -1.74155 
342 1 58.71 15.3892 12.8726 5.92418 -0.0434886 5.06129 1.83239 
346 1 58.71 17.7382 13.4479 6.00427 4.95205 -4.85795 -3.14672 
321 1 58.71 21.5765 11.0277 6.00047 1.10416 1.13012 -7.16125 
349 1 58.71 18.9413 11.2632 6.00947 -8.98685 0.991688 -6.73084 
350 1 58.71 20.5078 13.4531 6.14198 9.09479 6.1409 -5.19598 
353 1 58.71 1.27695 15.6811 6.14806 -3.81436 0.440232 -3.52833 
357 1 58.71 3.59608 15.4277 6.07146 -3.89816 2.61198 1.81264 
361 1 58.71 6.40127 15.2195 6.32386 0.250498 -2.86994 5.42942 
365 1 58.71 8.87669 15.2174 6.27879 -0.529844 4.44834 7.60629 
369 1 58.71 11.6537 15.6313 6.11848 -3.68691 4.9975 -1.03853 
335 1 58.71 10.3054 14.5068 7.9942 -1.88623 0.0532513 -0.0715404 
373 1 58.71 14.1191 15.3029 6.08276 3.24351 -0.659358 -1.07608 
343 1 58.71 15.3514 14.4942 7.89071 -0.238283 -1.25985 -2.12732 
377 1 58.71 16.5415 15.5972 5.97015 8.39631 4.37697 -0.458324 
381 1 58.71 19.084 15.3184 6.38477 -2.54259 -2.38394 1.75635 
354 1 58.71 2.54372 17.8774 6.53727 0.929335 6.66856 5.00625 
358 1 58.71 5.09049 17.7837 6.30125 -1.0776 1.71816 -1.35179 
362 1 58.71 7.41826 17.2876 6.20071 -3.24213 -3.18066 3.55662 
366 1 58.71 9.83986 17.4348 6.27666 -2.62701 -4.37085 3.03935 
370 1 58.71 12.4966 17.6073 6.03268 9.04591 4.35809 -3.08997 
401 1 58.71 11.4174 19.632 6.18559 3.96082 -11.531 -1.78892 
374 1 58.71 15.0928 17.7099 6.3976 -1.07965 4.80144 1.84994 
405 1 58.71 13.7681 19.6689 6.38483 3.08078 -2.41607 0.789022 
378 1 58.71 17.9926 17.5148 6.29362 0.788898 -10.4623 0.221147 
409 1 58.71 16.4993 19.6992 6.52871 1.47433 -5.36424 5.13578 
382 1 58.71 20.3357 17.6975 5.89341 0.811807 -0.563174 -0.768399 
413 1 58.71 18.8662 19.7325 5.86385 9.47496 -0.218036 0.29628 
389 1 58.71 3.63807 19.8396 6.20415 2.0834 0.962092 1.40083 
386 1 58.71 2.48998 22.0793 6.05973 -8.70462 3.01685 -4.72416 
393 1 58.71 6.22092 19.9699 5.96604 1.67728 1.19393 4.49064 
390 1 58.71 4.83768 22.0907 6.00517 -4.91 -5.77287 -3.76627 
396 1 58.71 6.16565 21.3815 7.88643 1.1354 3.65332 7.63255 
397 1 58.71 8.91525 19.8203 6.22143 -0.564519 -1.41828 2.45618 
394 1 58.71 7.52017 22.3621 6.40996 1.46717 2.61756 1.31081 
398 1 58.71 9.87407 21.9048 6.13427 -8.36864 4.46434 0.562834 
402 1 58.71 12.2653 22.0645 6.4258 -2.36152 0.353111 -0.119954 
406 1 58.71 15.0417 21.6928 6.2649 2.95327 -2.20183 -8.31851 
410 1 58.71 17.6146 21.8228 6.32962 2.26602 -4.8103 -0.480483 
385 1 58.71 21.4428 20.0049 6.01153 3.05414 1.94215 0.0100781 
414 1 58.71 20.3914 22.2395 6.25267 0.369375 4.75092 -4.97237 
416 1 58.71 18.9517 21.2509 7.98422 4.84968 4.34919 1.65959 
417 1 58.71 1.43827 24.2773 5.98363 -0.302205 -4.98121 3.72526 
421 1 58.71 3.82919 24.363 5.8696 -5.40256 -2.87666 7.23429 
425 1 58.71 6.24001 24.1522 6.16518 0.959938 5.15442 -3.19713 
429 1 58.71 8.75251 24.3859 6.00496 -0.923078 -6.44774 4.99992 
433 1 58.71 11.3856 23.9667 5.84757 -5.61481 -1.20012 5.42099 
437 1 58.71 13.6898 23.8141 6.13643 -2.23971 -3.40914 -3.00711 
441 1 58.71 16.4809 24.2655 6.25758 -2.5137 5.12326 2.39743 
445 1 58.71 18.6276 24.1063 6.28716 -1.38436 9.33838 3.59526 
418 1 58.71 2.41736 26.3793 6.06786 4.04436 4.80317 -3.16662 
453 1 58.71 3.36988 28.5402 5.96682 0.96292 -3.38028 -7.78723 
419 1 58.71 2.379 27.9918 7.95085 -1.15217 -4.59105 6.17051 
422 1 58.71 4.74182 26.562 6.24142 -8.39776 11.8164 -4.80256 
457 1 58.71 5.98582 28.3861 6.09871 2.42147 -9.07468 7.20281 
426 1 58.71 7.48935 26.3471 6.31103 7.01928 -2.53637 -12.7872 
430 1 58.71 10.2547 26.2799 6.13089 -0.317953 5.70277 1.41765 
434 1 58.71 12.5845 26.0654 6.19733 3.01631 6.17051 -7.15886 
465 1 58.71 11.0148 28.4377 6.24178 3.83598 -5.80751 0.193973 
438 1 58.71 14.8758 26.4826 6.08069 0.0425461 -0.330942 -0.711541 
442 1 58.71 17.4939 26.4287 6.11272 1.54139 0.469018 -4.67685 
473 1 58.71 16.1753 28.4447 6.35013 1.13352 7.67133 1.82838 
446 1 58.71 20.144 26.0664 6.15295 -4.44595 1.70608 5.53981 
477 1 58.71 18.7806 28.372 6.29206 -9.36395 -4.66233 -6.18224 
450 1 58.71 2.60665 30.95 6.00008 3.40959 4.87646 -4.61269 
454 1 58.71 5.07231 30.8616 6.1246 -0.436285 -2.8969 -0.232074 
461 1 58.71 8.60957 28.6327 6.03895 -6.55698 2.20174 -1.49286 
458 1 58.71 7.55671 30.7539 6.25247 1.58798 10.0152 -0.35931 
462 1 58.71 10.1193 30.5933 6.2112 -8.89223 -3.57629 4.79581 
466 1 58.71 12.8023 30.6677 5.77363 -0.265934 2.65772 -3.63646 
469 1 58.71 13.6977 28.6378 6.23273 -7.10051 -6.21559 0.546847 
470 1 58.71 15.277 30.6561 6.21358 0.974308 -2.18284 -0.19437 
474 1 58.71 17.8008 30.6465 6.31841 3.33377 -2.05635 0.0639693 
449 1 58.71 21.1753 28.6229 5.9136 7.01466 -2.80241 -5.82503 
478 1 58.71 20.1561 30.9154 6.20044 3.58015 3.96079 4.62047 
485 1 58.71 3.64021 32.9669 6.08183 4.66139 0.956169 -1.88534 
488 1 58.71 3.65613 34.4255 7.9046 3.50499 -5.07208 -3.05282 
489 1 58.71 6.17295 32.8708 6.25561 2.54555 4.36025 3.39491 
493 1 58.71 9.04864 33.0513 5.95996 1.97694 -3.13112 -6.99456 
463 1 58.71 9.80409 32.16 7.95014 6.25788 1.49836 -2.00394 
497 1 58.71 11.6173 32.9546 6.1354 -4.94388 4.33793 1.97401 
501 1 58.71 14.0151 33.0269 6.29665 -5.64017 1.67848 -2.84452 
505 1 58.71 16.3311 32.7261 6.01167 3.23296 -3.22596 -4.594 
475 1 58.71 17.5756 32.1974 8.01724 11.675 -2.73113 7.98769 
481 1 58.71 21.4798 33.2975 6.23475 1.82668 4.18131 5.53751 
509 1 58.71 19.0025 32.9414 6.14112 -1.97125 2.00908 3.92218 
482 1 58.71 2.62001 35.226 5.86256 -1.02823 7.15952 1.9825 
265 1 58.71 6.3271 37.2074 6.25575 0.93175 0.808346 -5.15534 
486 1 58.71 4.81585 35.1372 5.8554 2.22734 -10.4474 0.353158 
492 1 58.71 6.2035 34.584 8.00334 -4.17409 -4.11826 0.585676 
490 1 58.71 7.58375 34.8799 5.90126 -5.96141 -1.73841 -4.97143 
496 1 58.71 8.91036 34.5843 7.9796 -2.99954 5.5836 -4.46673 
273 1 58.71 11.2719 37.3664 6.24596 -3.09079 -4.49777 -4.64222 
494 1 58.71 10.1185 35.3271 6.25831 -2.3321 -0.454481 3.03252 
498 1 58.71 12.6706 35.0708 6.4116 4.04971 0.581663 0.0162624 
502 1 58.71 15.3878 35.236 6.30282 -1.13194 -10.2173 -3.1174 
506 1 58.71 17.6721 35.2712 6.15631 0.68705 -0.527977 5.13508 
257 1 58.71 21.5411 37.3467 6.25445 1.99531 8.47331 11.7352 
510 1 58.71 20.1555 35.2042 6.11885 0.254883 -1.40489 1.89695 
260 1 58.71 1.26609 3.45471 8.09763 7.65673 7.80461 2.08782 
264 1 58.71 3.72472 3.56914 8.07427 -7.87598 3.65526 -1.044 
514 1 58.71 2.42559 4.34718 10.3228 5.6755 0.149098 1.03254 
268 1 58.71 6.60324 3.58934 8.03108 1.89798 -7.02391 -3.32937 
518 1 58.71 4.99779 3.97199 10.3804 -0.0313857 -2.52071 -8.75013 
272 1 58.71 8.98002 3.81284 8.48055 3.91867 -0.932085 -5.04005 
522 1 58.71 7.59241 4.44417 10.0889 0.697257 -0.576434 4.013 
276 1 58.71 11.1405 3.62259 8.51626 -7.0772 3.29191 8.59868 
526 1 58.71 10.0149 4.43963 10.4386 -3.80339 3.8852 7.88556 
529 1 58.71 11.3728 2.43794 10.5436 0.909757 1.44381 -0.767979 
280 1 58.71 13.7966 3.67536 8.048 -7.93818 2.38755 4.3437 
530 1 58.71 12.9353 4.44976 10.0303 -0.662056 4.5946 -2.37006 
533 1 58.71 13.9538 2.40142 10.325 0.92791 -0.896283 1.46215 
534 1 58.71 15.1454 4.43027 10.4339 -0.871718 3.20385 3.20308 
284 1 58.71 16.1374 3.32466 8.29059 1.16088 3.13668 -1.69925 
538 1 58.71 17.633 4.08658 10.3024 -5.11043 -1.8862 2.58776 
288 1 58.71 18.9182 3.62867 8.37028 3.50016 -4.55333 5.81844 
542 1 58.71 20.1938 4.28956 10.3378 -5.74081 0.682673 -3.07272 
259 1 58.71 2.30628 5.78149 8.19101 -1.02666 -5.20555 -1.23974 
549 1 58.71 3.6943 6.36149 10.1295 3.07357 5.12003 -2.62529 
263 1 58.71 5.19009 5.94112 8.13209 -7.28466 4.13879 4.99938 
553 1 58.71 6.08754 6.59334 10.2662 -4.30924 0.380805 -4.93952 
271 1 58.71 9.9367 6.15846 8.21361 -0.387371 7.83206 -3.02502 
557 1 58.71 8.93284 6.59053 10.1619 -2.87327 -0.741387 3.04435 
275 1 58.71 12.4461 5.91135 8.02976 0.695934 3.6697 -6.20012 
561 1 58.71 11.4852 6.66067 10.0782 -1.42862 -2.82117 0.702071 
279 1 58.71 14.9771 5.8888 8.36215 2.48097 1.85257 1.20909 
565 1 58.71 13.9194 6.69028 10.266 -1.44983 3.05044 -8.56975 
283 1 58.71 17.4785 5.60755 8.29479 6.90448 7.55266 -1.69797 
316 1 58.71 16.5136 7.89878 8.31515 -1.11408 0.819486 0.0240391 
569 1 58.71 16.6757 6.6603 10.317 1.56255 4.34063 -2.71184 
287 1 58.71 20.3999 5.81888 8.08423 -0.296127 -2.26647 -0.312867 
545 1 58.71 21.5765 6.65639 10.2029 0.224997 4.51508 -5.53778 
573 1 58.71 19.2995 6.70335 9.94659 -6.29804 -1.03294 -5.96704 
291 1 58.71 2.2316 10.177 8.43971 5.05088 -4.24081 6.93331 
296 1 58.71 3.62984 8.14073 8.13686 4.40991 -0.221432 0.198631 
546 1 58.71 2.57227 8.59381 10.3482 0.496213 4.19628 -1.52288 
295 1 58.71 4.9296 10.3205 8.271 -7.36755 -1.14211 6.21217 
300 1 58.71 6.16863 8.08108 8.17974 5.70144 3.63722 -1.91847 
550 1 58.71 4.91038 8.48689 10.1108 -8.23013 -2.29615 12.6587 
299 1 58.71 7.52491 10.4149 8.0759 -3.44183 4.47347 -2.78468 
304 1 58.71 8.65902 8.22415 8.06765 -4.05375 7.13686 1.22639 
554 1 58.71 7.59025 8.70364 9.99462 2.92566 -4.08101 -5.4392 
308 1 58.71 11.3478 8.19949 8.06522 8.02274 5.57865 -1.50166 
558 1 58.71 9.98714 8.72862 10.2082 3.20699 -0.289382 -0.253911 
562 1 58.71 12.8325 8.77167 10.2155 6.63458 -2.79679 3.18199 
593 1 58.71 11.442 10.6466 10.1052 -6.6545 2.20308 0.678815 
307 1 58.71 12.8677 10.169 8.06742 11.6753 -2.42203 5.46074 
311 1 58.71 15.1943 10.2185 8.11517 3.0484 3.89258 8.49168 
312 1 58.71 13.9755 8.08195 8.33318 4.94314 -0.936932 -4.01742 
566 1 58.71 15.4689 8.82011 10.1478 5.63812 -0.611462 0.812874 
597 1 58.71 14.151 10.862 10.118 -1.5184 0.977483 0.888476 
570 1 58.71 17.9268 8.68871 9.95683 8.08969 0.569863 -4.87715 
574 1 58.71 20.3958 8.67291 9.68209 2.45372 -3.48662 -0.660191 
577 1 58.71 21.3466 10.8135 10.2858 -5.30608 -3.54168 4.79998 
324 1 58.71 1.44392 12.3627 8.52475 5.23022 4.31653 -7.01998 
328 1 58.71 3.85816 12.5928 8.43978 0.792181 2.05982 -3.96069 
581 1 58.71 3.60772 10.9318 10.205 -3.94264 0.729854 2.41274 
578 1 58.71 2.64139 13.6109 10.3121 -9.44883 -3.26421 -3.27987 
585 1 58.71 6.23634 10.9896 10.1995 4.193 0.687272 1.70413 
582 1 58.71 5.2097 12.936 10.5051 4.65824 -1.20425 0.803733 
589 1 58.71 8.79639 10.9928 10.2115 2.49301 -3.66738 -4.02745 
586 1 58.71 7.7564 13.2697 10.3829 -7.39191 -2.4282 -3.85142 
590 1 58.71 9.93642 12.9974 9.92012 5.81982 -9.38144 -10.187 
340 1 58.71 11.5764 12.2701 8.0566 -6.36469 3.44803 8.35633 
594 1 58.71 12.7622 12.8395 9.99462 0.574197 6.15624 5.80048 
344 1 58.71 13.9127 12.481 8.21039 7.38545 -4.71366 -3.48069 
598 1 58.71 15.4969 13.0144 9.99868 -0.335738 0.0298114 4.20039 
348 1 58.71 16.3575 12.3511 8.03405 1.03495 1.17574 3.58783 
601 1 58.71 16.4851 11.0646 10.2361 -6.0284 1.41365 -2.52101 
602 1 58.71 17.8879 13.0694 10.2382 2.24333 -2.90021 0.0867681 
352 1 58.71 19.0003 12.5626 8.08803 -1.62874 -3.54257 -0.459106 
605 1 58.71 19.0806 11.0418 9.87892 0.185436 -1.9255 -0.782059 
606 1 58.71 20.5875 13.1264 10.2605 1.18982 -4.88939 -3.94283 
323 1 58.71 2.34844 14.9073 8.02432 -0.932558 -2.05102 -0.38117 
613 1 58.71 3.80593 15.6437 10.2228 4.91567 8.47066 -5.15984 
327 1 58.71 4.84376 14.7152 8.45046 -7.54877 5.3559 4.53039 
364 1 58.71 6.23204 16.7156 8.13644 -0.107509 -5.11058 1.19412 
617 1 58.71 6.25121 15.2868 10.241 -4.79867 -0.0314418 6.49259 
331 1 58.71 7.84241 14.4504 8.31124 2.3127 1.18109 0.417947 
621 1 58.71 8.83514 15.3438 10.1952 -7.26022 -1.81036 -0.616205 
339 1 58.71 12.8074 14.6892 8.17136 2.05295 4.46876 -4.89738 
625 1 58.71 11.5061 14.9463 10.3408 0.0509537 6.67271 -2.76404 
376 1 58.71 13.7171 16.7494 8.12999 -1.39676 6.34742 7.3981 
629 1 58.71 13.9511 15.1907 10.0147 1.20095 -1.0449 -0.525484 
347 1 58.71 17.6904 14.6987 8.2704 -3.05008 4.16667 -0.889053 
380 1 58.71 16.7102 16.7357 8.23676 5.39568 -1.09807 -6.62731 
633 1 58.71 16.5394 15.1708 10.3543 -2.64532 1.08303 2.86268 
351 1 58.71 20.2224 14.4556 8.34611 4.53946 -3.21406 8.259 
384 1 58.71 19.2576 16.7485 8.41057 7.68066 -5.93672 -2.05808 
609 1 58.71 21.4617 15.3603 10.2841 6.98441 -4.01126 -3.45556 
637 1 58.71 19.0022 15.2527 10.3534 -0.273988 -8.73024 7.81873 
356 1 58.71 1.34612 16.9471 8.23054 -3.18769 -2.97542 -6.45677 
360 1 58.71 3.77637 16.8442 8.09382 -6.62534 -7.67848 4.01031 
355 1 58.71 2.35414 19.2022 8.502 -2.24916 3.09401 -6.26261 
610 1 58.71 2.20542 17.7704 10.4667 1.34911 -0.0636766 -1.92043 
359 1 58.71 4.98251 19.3945 8.13962 -0.939671 5.39287 1.03757 
614 1 58.71 4.89193 17.6115 10.152 2.36247 1.01963 1.14522 
368 1 58.71 8.6684 17.0027 8.17567 2.85182 2.63967 -1.2589 
363 1 58.71 7.42329 19.1368 8.06557 -8.85401 0.782335 -5.70513 
618 1 58.71 7.46399 17.3734 10.2303 4.22762 1.44074 -4.21436 
372 1 58.71 11.4089 16.8722 8.44817 -0.196713 -1.16138 -6.21212 
367 1 58.71 10.0251 19.0267 8.24749 -3.31764 2.20377 8.61138 
371 1 58.71 12.4458 19.2338 8.33056 0.0115215 -2.58883 0.867243 
622 1 58.71 10.0606 17.41 10.2815 -5.38974 -0.530312 1.68664 
626 1 58.71 12.7334 17.402 10.3555 5.31081 4.66484 2.02774 
657 1 58.71 11.2293 19.353 10.4871 -5.74694 2.59519 -8.10641 
375 1 58.71 15.2904 18.984 8.401 0.200642 5.06772 3.18877 
630 1 58.71 15.1868 17.3347 10.4818 -5.16212 4.56524 5.58515 
379 1 58.71 18.0558 18.9698 8.21829 0.709346 -4.89663 -3.89716 
634 1 58.71 17.5689 17.5588 10.1959 2.12544 -1.9462 1.7075 
665 1 58.71 16.4371 19.7004 10.5548 6.01032 -4.46851 3.96973 
383 1 58.71 20.2584 18.9496 8.22409 0.146884 -2.8141 -6.08916 
638 1 58.71 20.097 17.678 10.5462 1.15327 7.77738 0.877348 
392 1 58.71 3.74601 21.6089 8.19268 3.64978 3.5485 2.48556 
645 1 58.71 3.87929 19.86 10.2934 8.24594 -4.96417 -3.00186 
642 1 58.71 2.47501 21.9895 10.4126 1.92105 -2.06118 9.61584 
649 1 58.71 6.50949 19.9976 10.088 -5.24941 7.60686 -0.966547 
646 1 58.71 4.95 22.1856 10.3235 -0.423238 4.67304 -2.10143 
400 1 58.71 8.97599 21.4044 8.25292 2.7963 1.63024 -5.0459 
653 1 58.71 8.99219 19.7706 10.0869 -1.76596 4.95306 5.28824 
650 1 58.71 7.76084 22.0577 10.06 -2.52716 5.23057 -2.53883 
404 1 58.71 11.2516 21.1357 8.26624 0.375041 4.0893 -3.2342 
654 1 58.71 10.3363 21.8388 10.4719 -0.0123014 -5.19167 -5.49482 
408 1 58.71 13.7132 21.3122 8.10224 4.61833 -6.54185 2.31358 
661 1 58.71 13.9096 19.8363 10.4464 -5.06865 -2.74661 2.70468 
658 1 58.71 12.9319 21.926 10.3123 4.22252 0.614807 3.39057 
662 1 58.71 15.2793 21.6295 10.4935 -2.01475 3.67001 -0.0689562 
412 1 58.71 16.3066 21.3063 8.39326 -0.969229 -4.34947 -7.70777 
666 1 58.71 17.6353 21.9141 10.2758 0.0630424 0.74016 -4.49577 
388 1 58.71 21.4943 21.4589 8.26683 0.474509 -0.581613 -4.42322 
641 1 58.71 21.5803 19.9473 10.3329 -6.87144 4.48872 -2.03362 