ITEM: TIMESTEP
0
ITEM: NUMBER OF ATOMS
500
ITEM: BOX BOUNDS
0.000000 14.500000
0.000000 25.114737
0.000000 23.678500
ITEM: ATOMS id type x y z
1 1 0.000000 0.000000 0.000000
2 1 1.450000 2.511474 0.000000
3 1 1.450000 0.837158 2.367850
4 1 0.000000 3.348632 2.367850
5 1 0.000000 0.000000 4.735700
6 1 1.450000 2.511474 4.735700
7 1 1.450000 0.837158 7.103550
8 1 0.000000 3.348632 7.103550
9 1 0.000000 0.000000 9.471400
10 1 1.450000 2.511474 9.471400
11 1 1.450000 0.837158 11.839250
12 1 0.000000 3.348632 11.839250
13 1 0.000000 0.000000 14.207100
14 1 1.450000 2.511474 14.207100
15 1 1.450000 0.837158 16.574950
16 1 0.000000 3.348632 16.574950
17 1 0.000000 0.000000 18.942800
18 1 1.450000 2.511474 18.942800
19 1 1.450000 0.837158 21.310650
20 1 0.000000 3.348632 21.310650
21 1 0.000000 5.022947 0.000000
22 1 1.450000 7.534421 0.000000
23 1 1.450000 5.860105 2.367850
24 1 0.000000 8.371579 2.367850
25 1 0.000000 5.022947 4.735700
26 1 1.450000 7.534421 4.735700
27 1 1.450000 5.860105 7.103550
28 1 0.000000 8.371579 7.103550
29 1 0.000000 5.022947 9.471400
30 1 1.450000 7.534421 9.471400
31 1 1.450000 5.860105 11.839250
32 1 0.000000 8.371579 11.839250
33 1 0.000000 5.022947 14.207100
34 1 1.450000 7.534421 14.207100
35 1 1.450000 5.860105 16.574950
36 1 0.000000 8.371579 16.574950
37 1 0.000000 5.022947 18.942800
38 1 1.450000 7.534421 18.942800
39 1 1.450000 5.860105 21.310650
40 1 0.000000 8.371579 21.310650
41 1 0.000000 10.045895 0.000000
42 1 1.450000 12.557368 0.000000
43 1 1.450000 10.883053 2.367850
44 1 0.000000 13.394526 2.367850
45 1 0.000000 10.045895 4.735700
46 1 1.450000 12.557368 4.735700
47 1 1.450000 10.883053 7.103550
48 1 0.000000 13.394526 7.103550
49 1 0.000000 10.045895 9.471400
50 1 1.450000 12.557368 9.471400
51 1 1.450000 10.883053 11.839250
52 1 0.000000 13.394526 11.839250
53 1 0.000000 10.045895 14.207100
54 1 1.450000 12.557368 14.207100
55 1 1.450000 10.883053 16.574950
56 1 0.000000 13.394526 16.574950
57 1 0.000000 10.045895 18.942800
58 1 1.450000 12.557368 18.942800
59 1 1.450000 10.883053 21.310650
60 1 0.000000 13.394526 21.310650
61 1 0.000000 15.068842 0.000000
62 1 1.450000 17.580316 0.000000
63 1 1.450000 15.906000 2.367850
64 1 0.000000 18.417474 2.367850
65 1 0.000000 15.068842 4.735700
66 1 1.450000 17.580316 4.735700
67 1 1.450000 15.906000 7.103550
68 1 0.000000 18.417474 7.103550
69 1 0.000000 15.068842 9.471400
70 1 1.450000 17.580316 9.471400
71 1 1.450000 15.906000 11.839250
72 1 0.000000 18.417474 11.839250
73 1 0.000000 15.068842 14.207100
74 1 1.450000 17.580316 14.207100
75 1 1.450000 15.906000 16.574950
76 1 0.000000 18.417474 16.574950
77 1 0.000000 15.068842 18.942800
78 1 1.450000 17.580316 18.942800
79 1 1.450000 15.906000 21.310650
80 1 0.000000 18.417474 21.310650
81 1 0.000000 20.091789 0.000000
82 1 1.450000 22.603263 0.000000
83 1 1.450000 20.928947 2.367850
84 1 0.000000 23.440421 2.367850
85 1 0.000000 20.091789 4.735700
86 1 1.450000 22.603263 4.735700
87 1 1.450000 20.928947 7.103550
88 1 0.000000 23.440421 7.103550
89 1 0.000000 20.091789 9.471400
90 1 1.450000 22.603263 9.471400
91 1 1.450000 20.928947 11.839250
92 1 0.000000 23.440421 11.839250
93 1 0.000000 20.091789 14.207100
94 1 1.450000 22.603263 14.207100
95 1 1.450000 20.928947 16.574950
96 1 0.000000 23.440421 16.574950
97 1 0.000000 20.091789 18.942800
98 1 1.450000 22.603263 18.942800
99 1 1.450000 20.928947 21.310650
100 1 0.000000 23.440421 21.310650
101 1 2.900000 0.000000 0.000000
102 1 4.350000 2.511474 0.000000
103 1 4.350000 0.837158 2.367850
104 1 2.900000 3.348632 2.367850
105 1 2.900000 0.000000 4.735700
106 1 4.350000 2.511474 4.735700
107 1 4.350000 0.837158 7.103550
108 1 2.900000 3.348632 7.103550
109 1 2.900000 0.000000 9.471400
110 1 4.350000 2.511474 9.471400
111 1 4.350000 0.837158 11.839250
112 1 2.900000 3.348632 11.839250
113 1 2.900000 0.000000 14.207100
114 1 4.350000 2.511474 14.207100
115 1 4.350000 0.837158 16.574950
116 1 2.900000 3.348632 16.574950
117 1 2.900000 0.000000 18.942800
118 1 4.350000 2.511474 18.942800
119 1 4.350000 0.837158 21.310650
120 1 2.900000 3.348632 21.310650
121 1 2.900000 5.022947 0.000000
122 1 4.350000 7.534421 0.000000
123 1 4.350000 5.860105 2.367850
124 1 2.900000 8.371579 2.367850
125 1 2.900000 5.022947 4.735700
126 1 4.350000 7.534421 4.735700
127 1 4.350000 5.860105 7.103550
128 1 2.900000 8.371579 7.103550
129 1 2.900000 5.022947 9.471400
130 1 4.350000 7.534421 9.471400
131 1 4.350000 5.860105 11.839250
132 1 2.900000 8.371579 11.839250
133 1 2.900000 5.022947 14.207100
134 1 4.350000 7.534421 14.207100
135 1 4.350000 5.860105 16.574950
136 1 2.900000 8.371579 16.574950
137 1 2.900000 5.022947 18.942800
138 1 4.350000 7.534421 18.942800
139 1 4.350000 5.860105 21.310650
140 1 2.900000 8.371579 21.310650
141 1 2.900000 10.045895 0.000000
142 1 4.350000 12.557368 0.000000
143 1 4.350000 10.883053 2.367850
144 1 2.900000 13.394526 2.367850
145 1 2.900000 10.045895 4.735700
146 1 4.350000 12.557368 4.735700
147 1 4.350000 10.883053 7.103550
148 1 2.900000 13.394526 7.103550
149 1 2.900000 10.045895 9.471400
150 1 4.350000 12.557368 9.471400
151 1 4.350000 10.883053 11.839250
152 1 2.900000 13.394526 11.839250
153 1 2.900000 10.045895 14.207100
154 1 4.350000 12.557368 14.207100
155 1 4.350000 10.883053 16.574950
156 1 2.900000 13.394526 16.574950
157 1 2.900000 10.045895 18.942800
158 1 4.350000 12.557368 18.942800
159 1 4.350000 10.883053 21.310650
160 1 2.900000 13.394526 21.310650
161 1 2.900000 15.068842 0.000000
162 1 4.350000 17.580316 0.000000
163 1 4.350000 15.906000 2.367850
164 1 2.900000 18.417474 2.367850
165 1 2.900000 15.068842 4.735700
166 1 4.350000 17.580316 4.735700
167 1 4.350000 15.906000 7.103550
168 1 2.900000 18.417474 7.103550
169 1 2.900000 15.068842 9.471400
170 1 4.350000 17.580316 9.471400
171 1 4.350000 15.906000 11.839250
172 1 2.900000 18.417474 11.839250
173 1 2.900000 15.068842 14.207100
174 1 4.350000 17.580316 14.207100
175 1 4.350000 15.906000 16.574950
176 1 2.900000 18.417474 16.574950
177 1 2.900000 15.068842 18.942800
178 1 4.350000 17.580316 18.942800
179 1 4.350000 15.906000 21.310650
180 1 2.900000 18.417474 21.310650
181 1 2.900000 20.091789 0.000000
182 1 4.350000 22.603263 0.000000
183 1 4.350000 20.928947 2.367850
184 1 2.900000 23.440421 2.367850
185 1 2.900000 20.091789 4.735700
186 1 4.350000 22.603263 4.735700
187 1 4.350000 20.928947 7.103550
188 1 2.900000 23.440421 7.103550
189 1 2.900000 20.091789 9.471400
190 1 4.350000 22.603263 9.471400
191 1 4.350000 20.928947 11.839250
192 1 2.900000 23.440421 11.839250
193 1 2.900000 20.091789 14.207100
194 1 4.350000 22.603263 14.207100
195 1 4.350000 20.928947 16.574950
196 1 2.900000 23.440421 16.574950
197 1 2.900000 20.091789 18.942800
198 1 4.350000 22.603263 18.942800
199 1 4.350000 20.928947 21.310650
200 1 2.900000 23.440421 21.310650
201 1 5.800000 0.000000 0.000000
202 1 7.250000 2.511474 0.000000
203 1 7.250000 0.837158 2.367850
204 1 5.800000 3.348632 2.367850
205 1 5.800000 0.000000 4.735700
206 1 7.250000 2.511474 4.735700
207 1 7.250000 0.837158 7.103550
208 1 5.800000 3.348632 7.103550
209 1 5.800000 0.000000 9.471400
210 1 7.250000 2.511474 9.471400
211 1 7.250000 0.837158 11.839250
212 1 5.800000 3.348632 11.839250
213 1 5.800000 0.000000 14.207100
214 1 7.250000 2.511474 14.207100
215 1 7.250000 0.837158 16.574950
216 1 5.800000 3.348632 16.574950
217 1 5.800000 0.000000 18.942800
218 1 7.250000 2.511474 18.942800
219 1 7.250000 0.837158 21.310650
220 1 5.800000 3.348632 21.310650
221 1 5.800000 5.022947 0.000000
222 1 7.250000 7.534421 0.000000
223 1 7.250000 5.860105 2.367850
224 1 5.800000 8.371579 2.367850
225 1 5.800000 5.022947 4.735700
226 1 7.250000 7.534421 4.735700
227 1 7.250000 5.860105 7.103550
228 1 5.800000 8.371579 7.103550
229 1 5.800000 5.022947 9.471400
230 1 7.250000 7.534421 9.471400
231 1 7.250000 5.860105 11.839250
232 1 5.800000 8.371579 11.839250
233 1 5.800000 5.022947 14.207100
234 1 7.250000 7.534421 14.207100
235 1 7.250000 5.860105 16.574950
236 1 5.800000 8.371579 16.574950
237 1 5.800000 5.022947 18.942800
238 1 7.250000 7.534421 18.942800
239 1 7.250000 5.860105 21.310650
240 1 5.800000 8.371579 21.310650
241 1 5.800000 10.045895 0.000000
242 1 7.250000 12.557368 0.000000
243 1 7.250000 10.883053 2.367850
244 1 5.800000 13.394526 2.367850
245 1 5.800000 10.045895 4.735700
246 1 7.250000 12.557368 4.735700
247 1 7.250000 10.883053 7.103550
248 1 5.800000 13.394526 7.103550
249 1 5.800000 10.045895 9.471400
250 1 7.250000 12.557368 9.471400
251 1 7.250000 10.883053 11.839250
252 1 5.800000 13.394526 11.839250
253 1 5.800000 10.045895 14.207100
254 1 7.250000 12.557368 14.207100
255 1 7.250000 10.883053 16.574950
256 1 5.800000 13.394526 16.574950
257 1 5.800000 10.045895 18.942800
258 1 7.250000 12.557368 18.942800
259 1 7.250000 10.883053 21.310650
260 1 5.800000 13.394526 21.310650
261 1 5.800000 15.068842 0.000000
262 1 7.250000 17.580316 0.000000
263 1 7.250000 15.906000 2.367850
264 1 5.800000 18.417474 2.367850
265 1 5.800000 15.068842 4.735700
266 1 7.250000 17.580316 4.735700
267 1 7.250000 15.906000 7.103550
268 1 5.800000 18.417474 7.103550
269 1 5.800000 15.068842 9.471400
270 1 7.250000 17.580316 9.471400
271 1 7.250000 15.906000 11.839250
272 1 5.800000 18.417474 11.839250
273 1 5.800000 15.068842 14.207100
274 1 7.250000 17.580316 14.207100
275 1 7.250000 15.906000 16.574950
276 1 5.800000 18.417474 16.574950
277 1 5.800000 15.068842 18.942800
278 1 7.250000 17.580316 18.942800
279 1 7.250000 15.906000 21.310650
280 1 5.800000 18.417474 21.310650
281 1 5.800000 20.091789 0.000000
282 1 7.250000 22.603263 0.000000
283 1 7.250000 20.928947 2.367850
284 1 5.800000 23.440421 2.367850
285 1 5.800000 20.091789 4.735700
286 1 7.250000 22.603263 4.735700
287 1 7.250000 20.928947 7.103550
288 1 5.800000 23.440421 7.103550
289 1 5.800000 20.091789 9.471400
290 1 7.250000 22.603263 9.471400
291 1 7.250000 20.928947 11.839250
292 1 5.800000 23.440421 11.839250
293 1 5.800000 20.091789 14.207100
294 1 7.250000 22.603263 14.207100
295 1 7.250000 20.928947 16.574950
296 1 5.800000 23.440421 16.574950
297 1 5.800000 20.091789 18.942800
298 1 7.250000 22.603263 18.942800
299 1 7.250000 20.928947 21.310650
300 1 5.800000 23.440421 21.310650
301 1 8.700000 0.000000 0.000000
302 1 10.150000 2.511474 0.000000
303 1 10.150000 0.837158 2.367850
304 1 8.700000 3.348632 2.367850
305 1 8.700000 0.000000 4.735700
306 1 10.150000 2.511474 4.735700
307 1 10.150000 0.837158 7.103550
308 1 8.700000 3.348632 7.103550
309 1 8.700000 0.000000 9.471400
310 1 10.150000 2.511474 9.471400
311 1 10.150000 0.837158 11.839250
312 1 8.700000 3.348632 11.839250
313 1 8.700000 0.000000 14.207100
314 1 10.150000 2.511474 14.207100
315 1 10.150000 0.837158 16.574950
316 1 8.700000 3.348632 16.574950
317 1 8.700000 0.000000 18.942800
318 1 10.150000 2.511474 18.942800
319 1 10.150000 0.837158 21.310650
320 1 8.700000 3.348632 21.310650
321 1 8.700000 5.022947 0.000000
322 1 10.150000 7.534421 0.000000
323 1 10.150000 5.860105 2.367850
324 1 8.700000 8.371579 2.367850
325 1 8.700000 5.022947 4.735700
326 1 10.150000 7.534421 4.735700
327 1 10.150000 5.860105 7.103550
328 1 8.700000 8.371579 7.103550
329 1 8.700000 5.022947 9.471400
330 1 10.150000 7.534421 9.471400
331 1 10.150000 5.860105 11.839250
332 1 8.700000 8.371579 11.839250
333 1 8.700000 5.022947 14.207100
334 1 10.150000 7.534421 14.207100
335 1 10.150000 5.860105 16.574950
336 1 8.700000 8.371579 16.574950
337 1 8.700000 5.022947 18.942800
338 1 10.150000 7.534421 18.942800
339 1 10.150000 5.860105 21.310650
340 1 8.700000 8.371579 21.310650
341 1 8.700000 10.045895 0.000000
342 1 10.150000 12.557368 0.000000
343 1 10.150000 10.883053 2.367850
344 1 8.700000 13.394526 2.367850
345 1 8.700000 10.045895 4.735700
346 1 10.150000 12.557368 4.735700
347 1 10.150000 10.883053 7.103550
348 1 8.700000 13.394526 7.103550
349 1 8.700000 10.045895 9.471400
350 1 10.150000 12.557368 9.471400
351 1 10.150000 10.883053 11.839250
352 1 8.700000 13.394526 11.839250
353 1 8.700000 10.045895 14.207100
354 1 10.150000 12.557368 14.207100
355 1 10.150000 10.883053 16.574950
356 1 8.700000 13.394526 16.574950
357 1 8.700000 10.045895 18.942800
358 1 10.150000 12.557368 18.942800
359 1 10.150000 10.883053 21.310650
360 1 8.700000 13.394526 21.310650
361 1 8.700000 15.068842 0.000000
362 1 10.150000 17.580316 0.000000
363 1 10.150000 15.906000 2.367850
364 1 8.700000 18.417474 2.367850
365 1 8.700000 15.068842 4.735700
366 1 10.150000 17.580316 4.735700
367 1 10.150000 15.906000 7.103550
368 1 8.700000 18.417474 7.103550
369 1 8.700000 15.068842 9.471400
370 1 10.150000 17.580316 9.471400
371 1 10.150000 15.906000 11.839250
372 1 8.700000 18.417474 11.839250
373 1 8.700000 15.068842 14.207100
374 1 10.150000 17.580316 14.207100
375 1 10.150000 15.906000 16.574950
376 1 8.700000 18.417474 16.574950
377 1 8.700000 15.068842 18.942800
378 1 10.150000 17.580316 18.942800
379 1 10.150000 15.906000 21.310650
380 1 8.700000 18.417474 21.310650
381 1 8.700000 20.091789 0.000000
382 1 10.150000 22.603263 0.000000
383 1 10.150000 20.928947 2.367850
384 1 8.700000 23.440421 2.367850
385 1 8.700000 20.091789 4.735700
386 1 10.150000 22.603263 4.735700
387 1 10.150000 20.928947 7.103550
388 1 8.700000 23.440421 7.103550
389 1 8.700000 20.091789 9.471400
390 1 10.150000 22.603263 9.471400
391 1 10.150000 20.928947 11.839250
392 1 8.700000 23.440421 11.839250
393 1 8.700000 20.091789 14.207100
394 1 10.150000 22.603263 14.207100
395 1 10.150000 20.928947 16.574950
396 1 8.700000 23.440421 16.574950
397 1 8.700000 20.091789 18.942800
398 1 10.150000 22.603263 18.942800
399 1 10.150000 20.928947 21.310650
400 1 8.700000 23.440421 21.310650
401 1 11.600000 0.000000 0.000000
402 1 13.050000 2.511474 0.000000
403 1 13.050000 0.837158 2.367850
404 1 11.600000 3.348632 2.367850
405 1 11.600000 0.000000 4.735700
406 1 13.050000 2.511474 4.735700
407 1 13.050000 0.837158 7.103550
408 1 11.600000 3.348632 7.103550
409 1 11.600000 0.000000 9.471400
410 1 13.050000 2.511474 9.471400
411 1 13.050000 0.837158 11.839250
412 1 11.600000 3.348632 11.839250
413 1 11.600000 0.000000 14.207100
414 1 13.050000 2.511474 14.207100
415 1 13.050000 0.837158 16.574950
416 1 11.600000 3.348632 16.574950
417 1 11.600000 0.000000 18.942800
418 1 13.050000 2.511474 18.942800
419 1 13.050000 0.837158 21.310650
420 1 11.600000 3.348632 21.310650
421 1 11.600000 5.022947 0.000000
422 1 13.050000 7.534421 0.000000
423 1 13.050000 5.860105 2.367850
424 1 11.600000 8.371579 2.367850
425 1 11.600000 5.022947 4.735700
426 1 13.050000 7.534421 4.735700
427 1 13.050000 5.860105 7.103550
428 1 11.600000 8.371579 7.103550
429 1 11.600000 5.022947 9.471400
430 1 13.050000 7.534421 9.471400
431 1 13.050000 5.860105 11.839250
432 1 11.600000 8.371579 11.839250
433 1 11.600000 5.022947 14.207100
434 1 13.050000 7.534421 14.207100
435 1 13.050000 5.860105 16.574950
436 1 11.600000 8.371579 16.574950
437 1 11.600000 5.022947 18.942800
438 1 13.050000 7.534421 18.942800
439 1 13.050000 5.860105 21.310650
440 1 11.600000 8.371579 21.310650
441 1 11.600000 10.045895 0.000000
442 1 13.050000 12.557368 0.000000
443 1 13.050000 10.883053 2.367850
444 1 11.600000 13.394526 2.367850
445 1 11.600000 10.045895 4.735700
446 1 13.050000 12.557368 4.735700
447 1 13.050000 10.883053 7.103550
448 1 11.600000 13.394526 7.103550
449 1 11.600000 10.045895 9.471400
450 1 13.050000 12.557368 9.471400
451 1 13.050000 10.883053 11.839250
452 1 11.600000 13.394526 11.839250
453 1 11.600000 10.045895 14.207100
454 1 13.050000 12.557368 14.207100
455 1 13.050000 10.883053 16.574950
456 1 11.600000 13.394526 16.574950
457 1 11.600000 10.045895 18.942800
458 1 13.050000 12.557368 18.942800
459 1 13.050000 10.883053 21.310650
460 1 11.600000 13.394526 21.310650
461 1 11.600000 15.068842 0.000000
462 1 13.050000 17.580316 0.000000
463 1 13.050000 15.906000 2.367850
464 1 11.600000 18.417474 2.367850
465 1 11.600000 15.068842 4.735700
466 1 13.050000 17.580316 4.735700
467 1 13.050000 15.906000 7.103550
468 1 11.600000 18.417474 7.103550
469 1 11.600000 15.068842 9.471400
470 1 13.050000 17.580316 9.471400
471 1 13.050000 15.906000 11.839250
472 1 11.600000 18.417474 11.839250
473 1 11.600000 15.068842 14.207100
474 1 13.050000 17.580316 14.207100
475 1 13.050000 15.906000 16.574950
476 1 11.600000 18.417474 16.574950
477 1 11.600000 15.068842 18.942800
478 1 13.050000 17.580316 18.942800
479 1 13.050000 15.906000 21.310650
480 1 11.600000 18.417474 21.310650
481 1 11.600000 20.091789 0.000000
482 1 13.050000 22.603263 0.000000
483 1 13.050000 20.928947 2.367850
484 1 11.600000 23.440421 2.367850
485 1 11.600000 20.091789 4.735700
486 1 13.050000 22.603263 4.735700
487 1 13.050000 20.928947 7.103550
488 1 11.600000 23.440421 7.103550
489 1 11.600000 20.091789 9.471400
490 1 13.050000 22.603263 9.471400
491 1 13.050000 20.928947 11.839250
492 1 11.600000 23.440421 11.839250
493 1 11.600000 20.091789 14.207100
494 1 13.050000 22.603263 14.207100
495 1 13.050000 20.928947 16.574950
496 1 11.600000 23.440421 16.574950
497 1 11.600000 20.091789 18.942800
498 1 13.050000 22.603263 18.942800
499 1 13.050000 20.928947 21.310650
500 1 11.600000 23.440421 21.310650
