ITEM: TIMESTEP
0
ITEM: NUMBER OF ATOMS
500
ITEM: BOX BOUNDS pp pp pp
-7.34762 10.8716
-7.35059 10.8745
-7.42249 10.9465
ITEM: ATOMS id type mass x y z vx vy vz 
1 1 58.71 -4.72745 -6.17395 -7.04702 0.629386 1.16765 -0.494039 
2 1 58.71 -6.58611 -5.37261 -5.80325 -4.13444 -5.00876 -5.15403 
4 1 58.71 -2.51731 -5.58058 -5.70715 3.11768 1.70867 1.35098 
76 1 58.71 -2.71716 -7.18714 -7.23299 -6.69822 1.09487 2.06338 
5 1 58.71 -0.383326 -5.51524 -6.26201 -2.5603 2.13528 -12.5778 
79 1 58.71 1.6575 -6.6989 -5.98673 -6.06489 -5.08421 -3.97757 
93 1 58.71 1.06342 -5.05628 -4.37548 -0.289199 -1.1555 -0.652594 
7 1 58.71 3.36359 -5.58449 -4.69397 -3.63968 2.50638 12.1138 
82 1 58.71 3.90886 -7.03322 -7.17553 5.92276 2.01242 -1.97953 
429 1 58.71 4.54115 -4.66842 -6.57542 0.524427 -6.0414 -1.82985 
8 1 58.71 7.11328 -4.49348 -5.64267 -0.772266 10.0298 -1.30389 
9 1 58.71 5.42115 -6.45086 -5.06869 -0.882178 -0.919801 4.78861 
10 1 58.71 7.91923 -6.73414 -5.71479 6.15317 1.28716 1.55454 
11 1 58.71 9.65955 -5.63772 -6.87365 -6.40919 -3.20623 -2.75399 
88 1 58.71 10.2505 -7.28531 -4.91734 3.22237 1.90709 -0.707473 
12 1 58.71 -4.35916 -3.92515 -6.09761 -4.64737 4.39101 0.485506 
13 1 58.71 -5.75842 -1.95115 -6.46583 7.11849 2.15225 5.67036 
14 1 58.71 -6.87281 -3.61171 -7.31994 -2.36343 1.03525 -0.113482 
105 1 58.71 -6.53072 -3.25684 -4.57722 10.4272 -2.71365 6.68877 
16 1 58.71 -2.07909 -3.53178 -6.8482 -4.46645 -7.66417 -8.87276 
17 1 58.71 -2.68189 -1.49213 -6.01758 -6.97515 2.0309 8.24146 
107 1 58.71 -2.80607 -3.35695 -4.3755 -1.38955 5.89578 5.71361 
19 1 58.71 -0.254261 -2.92145 -4.75643 -0.00599177 -1.34827 -3.51865 
20 1 58.71 1.80543 -1.40932 -6.15703 -0.793219 -2.53298 -0.327066 
21 1 58.71 4.06321 -1.29569 -4.76875 0.611891 -4.49921 -4.27015 
22 1 58.71 2.52726 -3.57829 -5.34192 1.30828 0.866773 -7.89409 
441 1 58.71 3.89295 -1.9718 -6.9286 -14.4391 3.13712 -4.81604 
23 1 58.71 5.8476 -2.81047 -4.8734 -0.786427 -1.59947 3.04159 
25 1 58.71 7.77351 -1.77629 -5.66724 1.01341 -2.47175 5.57454 
26 1 58.71 9.63406 -3.17346 -5.74775 -1.55466 -2.23044 1.59931 
24 1 58.71 -7.22928 -0.812362 -4.93851 2.94347 4.3085 -4.30437 
28 1 58.71 -4.41298 0.0513034 -5.15519 -0.38885 3.33708 -3.38433 
449 1 58.71 -6.19483 0.818365 -6.51482 -0.826508 -0.181006 2.30982 
29 1 58.71 -2.80912 1.15196 -6.74765 -0.475503 -0.357235 1.32494 
32 1 58.71 -2.14256 0.86895 -4.66889 0.640163 3.33455 -2.05621 
18 1 58.71 -0.416903 -0.515955 -5.87866 -5.44975 3.29763 5.15221 
31 1 58.71 1.56227 0.841156 -5.35996 1.46477 3.32098 -0.0935503 
452 1 58.71 -0.500576 1.24389 -7.27495 0.93772 -5.71977 -6.40149 
455 1 58.71 3.7047 0.347069 -6.28815 -5.54219 1.99392 2.40659 
36 1 58.71 5.87425 0.240825 -5.1545 0.454541 1.12857 6.40681 
27 1 58.71 10.076 -1.16463 -7.21928 2.25593 -3.43108 -2.62528 
37 1 58.71 9.91259 1.51375 -5.44728 4.81966 -2.66094 1.44177 
38 1 58.71 7.96563 0.562678 -6.44832 2.86062 -12.9051 4.13986 
39 1 58.71 -6.6495 3.48686 -5.51807 -2.14237 -0.53374 -10.2152 
41 1 58.71 -4.6239 2.6546 -7.14305 -1.73397 3.05016 -0.874259 
30 1 58.71 -2.37006 3.38077 -6.23348 -3.11042 1.82517 0.380503 
135 1 58.71 -3.93628 2.55071 -4.52037 0.540768 -0.499379 11.6218 
46 1 58.71 -0.29477 2.46418 -5.24103 5.34353 1.9312 -0.963862 
47 1 58.71 1.39763 4.33753 -4.77175 -5.71695 2.48493 -5.9059 
33 1 58.71 3.58016 3.00066 -5.52434 6.34494 2.82915 -5.25622 
45 1 58.71 1.76482 2.30342 -7.08125 3.21223 -1.49153 1.35454 
63 1 58.71 3.79681 4.74424 -7.15752 7.55093 8.81744 5.17147 
48 1 58.71 6.08375 2.76841 -6.59068 -3.4648 0.304745 -4.47843 
51 1 58.71 7.78262 2.56391 -4.98938 1.25807 2.3773 -2.54164 
67 1 58.71 5.10668 4.61315 -5.38803 -2.10399 2.74922 1.44672 
53 1 58.71 9.27703 4.24716 -5.75877 6.83947 6.17921 2.73814 
54 1 58.71 -6.84032 5.81829 -5.25301 -0.807402 -0.677746 -1.25216 
55 1 58.71 -4.72648 7.12928 -5.1501 -5.21575 7.66816 -0.123195 
73 1 58.71 -5.96659 6.87911 -7.332 -0.909586 -5.64258 -0.960778 
40 1 58.71 -3.93172 5.04691 -5.9862 -7.34004 -1.26289 0.25274 
57 1 58.71 -3.34046 7.04639 -7.39247 -3.68231 0.0423724 -3.67935 
151 1 58.71 -1.57487 7.24438 -5.72772 8.8597 5.38597 0.994989 
44 1 58.71 -1.01719 4.93882 -5.26307 4.01112 -4.34355 -0.780014 
60 1 58.71 0.746963 6.77579 -5.25436 7.05409 4.05718 -7.29349 
61 1 58.71 1.70796 4.98887 -7.145 -3.79033 9.07024 3.35698 
64 1 58.71 3.21372 6.22447 -4.90069 -1.48364 0.408702 3.27705 
482 1 58.71 2.93794 7.03814 -7.39044 -1.42143 -7.10368 3.75185 
65 1 58.71 5.24384 7.1736 -5.58775 8.8713 -5.02552 -0.856391 
66 1 58.71 7.5089 6.0658 -5.95593 -1.26232 1.12858 -7.28424 
69 1 58.71 9.47891 7.21099 -6.19872 -7.86611 -0.47201 -5.90573 
3 1 58.71 -6.78164 10.6298 -7.15805 -10.6902 -0.921732 -3.38104 
70 1 58.71 -5.35164 10.6334 -4.93055 -2.6051 -8.05801 0.594971 
71 1 58.71 -4.6715 9.40114 -7.09691 -11.8872 1.47247 -1.57365 
72 1 58.71 -6.65522 8.62707 -5.81069 4.96286 -5.91406 4.23497 
75 1 58.71 -3.13825 9.18344 -5.30459 1.16458 4.94546 -4.3445 
77 1 58.71 -1.9084 8.86038 -7.22007 -2.63367 -2.73122 -1.82253 
58 1 58.71 0.479231 9.21681 -5.42395 3.42438 3.84817 3.19085 
74 1 58.71 -1.19141 10.826 -4.93462 5.11306 -0.56223 -2.61113 
80 1 58.71 2.88818 8.51096 -5.60003 4.39426 -2.22018 8.30226 
81 1 58.71 4.86826 8.91961 -7.12922 -5.11387 6.08725 1.95431 
83 1 58.71 7.01339 8.92653 -5.2696 -3.55146 9.14953 0.307598 
486 1 58.71 7.28134 8.2536 -7.27991 2.01615 -5.3414 -0.383879 
85 1 58.71 9.22676 9.53534 -6.64595 9.48082 2.80749 -2.91345 
86 1 58.71 -4.87644 -5.2805 -4.30441 0.243429 -0.728145 -1.93478 
87 1 58.71 -5.15799 -6.94113 -2.29307 5.63586 8.90054 -8.22821 
100 1 58.71 -6.92995 -5.5033 -3.09429 -2.19668 -2.94516 2.04882 
89 1 58.71 -3.20748 -7.03855 -3.59526 3.46044 0.442576 -3.08207 
90 1 58.71 -3.30709 -4.9517 -2.26619 -1.0844 2.55598 -3.24043 
181 1 58.71 -1.51526 -7.15576 -1.80562 -0.592098 2.47394 -4.40389 
91 1 58.71 -1.17201 -5.15822 -3.55051 8.64367 0.764516 7.92507 
92 1 58.71 0.187911 -5.73634 -1.56013 1.19943 1.15455 -1.48126 
94 1 58.71 0.70341 -7.25494 -3.24742 -4.69924 4.58345 -1.94335 
96 1 58.71 2.55635 -5.48914 -2.33821 5.04797 -1.6187 -7.77939 
97 1 58.71 4.75231 -6.54767 -2.26226 -5.47085 1.91937 0.0759813 
99 1 58.71 7.15743 -6.08003 -3.45002 0.488957 -0.587045 3.9347 
101 1 58.71 6.44527 -5.10022 -1.51102 1.00472 1.97681 -1.56174 
115 1 58.71 5.13882 -4.58688 -3.27672 -0.795708 1.02717 2.34065 
102 1 58.71 9.35381 -5.26261 -4.34837 -5.44717 -3.92574 -8.18882 
118 1 58.71 8.9932 -4.82169 -2.13747 -8.41932 8.99098 2.27247 
174 1 58.71 9.15452 -7.17659 -2.45503 -5.2488 -2.9471 2.18862 
103 1 58.71 -5.31393 -3.57198 -2.49781 -5.02945 -6.28022 0.64718 
104 1 58.71 -4.96289 -1.73236 -4.14139 -0.357025 -1.0517 -3.16719 
106 1 58.71 -6.93042 -2.02186 -2.55468 4.46376 1.44473 -2.00889 
108 1 58.71 -1.54355 -3.20295 -1.72778 3.24953 -4.02624 -0.865886 
109 1 58.71 -3.70521 -2.12724 -2.03223 0.784485 -0.304827 -4.02174 
111 1 58.71 0.774083 -3.58299 -2.42751 5.202 -1.38877 2.5112 
195 1 58.71 0.000605432 -1.37902 -2.16842 -3.65763 -1.76691 0.497128 
98 1 58.71 4.14107 -4.14918 -1.30106 4.83122 -0.51166 -6.47471 
112 1 58.71 3.33259 -2.93441 -3.34756 -7.87751 -1.01526 0.42081 
128 1 58.71 1.86464 -1.40924 -3.74855 0.22543 4.52408 4.05617 
197 1 58.71 2.4364 -1.94272 -1.31867 1.10631 0.646762 1.70357 
113 1 58.71 6.05069 -2.7326 -1.9378 1.88812 3.27224 3.64102 
117 1 58.71 7.56446 -3.6085 -3.38387 0.47689 -2.26249 -5.52465 
119 1 58.71 9.14626 -2.2386 -3.69331 -4.02685 6.00456 -3.97532 
121 1 58.71 -5.84567 1.47244 -3.85027 -1.08405 -1.55558 -0.846435 
122 1 58.71 -5.67678 -0.221086 -1.49947 0.87871 -0.775197 -2.47051 
110 1 58.71 -1.70639 -1.18045 -3.73328 -2.93141 9.41589 1.11578 
124 1 58.71 -3.71175 0.232941 -2.86247 2.20393 -0.467202 5.01471 
129 1 58.71 0.231248 0.676983 -3.38518 -4.94447 -3.02476 4.66488 
114 1 58.71 4.48051 -1.18716 -1.99593 3.98322 5.84462 -0.275086 
130 1 58.71 3.73602 0.9521 -3.73922 -4.2031 -1.85471 2.553 
207 1 58.71 2.15086 0.452261 -1.9407 -0.656924 2.71278 8.98967 
133 1 58.71 6.60727 -0.803777 -3.18786 -2.04347 -6.04019 3.56632 
146 1 58.71 5.62797 1.07668 -1.78608 -0.107522 -1.3854 1.95993 
131 1 58.71 8.40057 -0.487411 -1.79235 2.71321 -0.6012 1.11357 
132 1 58.71 8.37335 0.386396 -4.14767 5.91828 -3.42722 1.17687 
134 1 58.71 10.5521 0.266489 -2.73685 5.47574 -2.01065 8.61321 
123 1 58.71 -5.98761 2.41518 -1.54568 -3.17469 0.483988 -1.19114 
136 1 58.71 -5.43358 4.18851 -3.46793 5.83932 -0.382164 10.0598 
127 1 58.71 -1.91213 2.02096 -2.8604 -5.95718 -6.24956 -5.57812 
137 1 58.71 -3.8064 3.60222 -2.03943 -4.73473 -0.949511 -4.43035 
140 1 58.71 -0.0355261 3.69641 -3.08478 0.54907 0.953055 -2.05328 
142 1 58.71 3.78774 4.29645 -3.55816 -2.31175 3.2051 4.57162 
143 1 58.71 2.08534 2.63133 -3.20318 -7.23898 -0.6248 -2.86891 
144 1 58.71 3.7844 2.35419 -1.61865 -3.65331 1.76121 2.66942 
34 1 58.71 7.72408 2.09526 -2.32187 -2.20371 5.44103 2.36281 
35 1 58.71 5.45127 2.59511 -3.92524 -2.87193 -1.0294 0.284959 
145 1 58.71 5.65998 3.57609 -1.31702 -2.17946 0.0470994 5.99101 
50 1 58.71 10.0107 2.6896 -3.45493 5.81669 8.16808 -3.46148 
147 1 58.71 8.65722 4.34425 -2.10648 0.0602999 -5.06328 -8.18412 
148 1 58.71 -5.01501 6.40941 -2.97214 2.72636 -1.91037 -1.07533 
159 1 58.71 -7.06722 7.63369 -3.77239 -6.07064 0.439115 -9.80564 
225 1 58.71 -6.47667 7.02863 -1.41397 -2.19538 0.156208 -5.02097 
138 1 58.71 -3.17945 5.04198 -3.79028 -0.0193859 5.52211 2.36664 
152 1 58.71 -2.79084 5.82404 -1.46361 0.141256 -1.60781 -0.788292 
153 1 58.71 -2.89143 7.42777 -3.51756 -1.95953 -5.08937 -2.59395 
155 1 58.71 -0.837204 6.41093 -3.22297 -5.64675 -1.09806 -2.77405 
141 1 58.71 1.82185 5.5791 -2.78734 1.27703 5.03901 -2.69441 
156 1 58.71 1.86121 7.5952 -1.30168 4.59524 -2.36303 -5.14787 
168 1 58.71 4.34398 6.88731 -3.04311 -0.821671 -0.216297 -6.94002 
157 1 58.71 6.97524 5.0073 -3.96062 4.15896 -7.49999 -1.00782 
158 1 58.71 6.43464 5.81749 -1.54588 4.52842 -5.2965 -0.346891 
170 1 58.71 6.83626 7.45475 -3.42666 -3.88299 3.33238 7.64145 
68 1 58.71 9.06144 5.89699 -3.91763 -5.82457 3.74126 7.88493 
149 1 58.71 10.7568 4.89591 -2.77256 -6.15465 5.58914 0.29134 
160 1 58.71 9.56126 7.20935 -1.90646 -3.79879 0.160137 0.169679 
161 1 58.71 -4.89826 8.83428 -3.25073 -5.08519 1.75753 -2.55817 
162 1 58.71 -6.87493 9.92146 -2.94779 3.02859 -2.43341 -8.52568 
163 1 58.71 -1.45373 9.18369 -3.36023 -1.75419 3.05984 -3.34307 
164 1 58.71 -3.23048 9.62061 -1.58362 6.56005 -0.566565 0.865151 
154 1 58.71 -1.21606 7.86088 -1.52165 4.72178 -5.14411 4.70778 
165 1 58.71 1.32995 8.45905 -3.22425 -5.17488 2.21871 -3.49184 
167 1 58.71 2.77169 10.5167 -4.2297 4.13521 -0.879651 1.60358 
169 1 58.71 3.11355 9.3374 -1.6639 -0.817326 -10.018 1.15436 
171 1 58.71 4.73687 9.29999 -4.02289 -3.81038 -5.67955 -7.63083 
172 1 58.71 6.89762 9.62199 -2.95304 -4.31464 2.2666 4.84638 
236 1 58.71 5.15105 8.5275 -1.44342 3.34837 4.10726 0.818415 
84 1 58.71 9.13092 8.83658 -3.75129 2.12026 4.46793 -1.98421 
175 1 58.71 -5.45795 -4.63134 -0.0796315 -2.17106 7.66483 -2.4254 
176 1 58.71 -7.10442 -6.71102 -0.458748 2.19361 -2.08985 6.16675 
177 1 58.71 -5.63125 -6.49221 1.43317 4.33027 3.57354 -2.91434 
179 1 58.71 -1.68264 -5.26389 -0.317071 3.39907 4.6697 0.754525 
180 1 58.71 -3.46668 -6.55642 -0.367253 -2.17128 -2.53692 -5.90642 
182 1 58.71 0.207874 -6.43554 1.06328 -2.75211 -1.51498 -5.72132 
95 1 58.71 2.14669 -6.97512 -0.53284 -4.15608 8.47351 1.65334 
183 1 58.71 2.75705 -4.42975 0.32982 -1.25987 1.80913 -3.46336 
184 1 58.71 4.59983 -5.81791 0.486086 -0.714944 3.69348 -2.02131 
187 1 58.71 6.82788 -6.41417 1.22737 -2.11921 -1.25475 0.0751239 
178 1 58.71 10.7736 -5.05248 1.31464 2.64252 3.0385 -1.90198 
188 1 58.71 8.08031 -4.43743 0.84316 2.83702 7.41752 -0.875575 
250 1 58.71 8.81659 -6.64626 -0.295526 7.30886 -4.00691 -10.5056 
190 1 58.71 -7.30922 -3.89911 -1.04737 1.96967 -5.38001 2.06744 
191 1 58.71 -5.67059 -2.11553 -0.320744 -2.12438 -10.6894 2.52665 
193 1 58.71 -3.24693 -3.32724 -0.17007 4.8869 -7.55667 0.624116 
194 1 58.71 -1.39552 -1.92433 0.242167 13.7349 1.06734 4.88851 
196 1 58.71 0.247033 -3.52776 -0.0934348 -5.54359 3.35366 9.23729 
198 1 58.71 4.29953 -1.71436 0.553987 0.285262 -8.97605 1.5396 
208 1 58.71 1.85781 -1.69862 0.995491 7.59057 2.00169 1.90556 
116 1 58.71 6.42641 -2.96584 0.443446 3.29784 3.12372 9.97065 
185 1 58.71 4.96443 -4.064 1.66566 3.5088 -4.39301 1.8112 
120 1 58.71 8.85532 -2.64338 -1.22849 7.38852 6.21605 -1.31556 
210 1 58.71 8.42533 -1.28112 1.01027 0.165403 2.58363 5.60921 
264 1 58.71 10.1119 -2.9577 0.949769 -5.13597 -1.02458 1.28741 
200 1 58.71 -5.67644 1.14064 0.408375 5.79405 -6.16035 -1.96907 
202 1 58.71 -6.70172 -1.0518 1.64917 1.19284 -6.64061 -6.80384 
125 1 58.71 -1.83517 -0.071601 -1.2351 0.701521 -1.93078 -5.0494 
126 1 58.71 -3.35385 1.67051 -0.865506 2.73203 8.18114 1.35848 
203 1 58.71 -3.67549 -0.833623 0.118091 -0.669119 -1.54727 -13.1767 
281 1 58.71 -2.06664 -0.192135 1.57458 -4.18331 3.01626 -2.67642 
204 1 58.71 0.121701 -0.140936 0.389785 5.00829 -3.67478 0.0794629 
214 1 58.71 -1.25402 1.73925 0.92831 -0.734889 1.02999 -2.02254 
216 1 58.71 0.143403 1.75873 -1.17013 4.676 -5.05558 2.38179 
205 1 58.71 1.93227 1.57177 0.487735 0.929074 -2.69308 4.24854 
220 1 58.71 3.91611 0.537941 -0.191677 -3.09815 -1.71796 3.97735 
206 1 58.71 6.42345 -0.956361 -0.48314 -2.15838 -0.65831 1.1308 
209 1 58.71 5.52852 1.59897 1.14991 1.22296 3.46421 -5.96049 
201 1 58.71 10.3565 -0.853166 -0.436094 -7.15041 1.97582 5.01663 
211 1 58.71 8.09157 0.96515 0.101642 -6.84985 -6.73327 0.0852505 
213 1 58.71 10.222 1.30746 1.2163 -1.03911 2.93719 -0.00726546 
212 1 58.71 -6.48743 3.52855 0.586276 0.367355 -3.29676 0.782123 
139 1 58.71 -1.47666 3.41136 -1.08418 -2.67901 -1.91681 -0.149729 
215 1 58.71 -3.92508 3.667 0.254913 1.22442 -4.29135 1.78379 
298 1 58.71 0.408318 3.42965 0.89285 0.844643 6.55225 -7.92794 
218 1 58.71 1.76535 3.64333 -0.923277 1.14061 -2.34828 -2.76345 
219 1 58.71 3.84779 3.60385 0.412413 2.0861 1.25092 -2.23731 
237 1 58.71 5.95029 4.70969 0.623801 10.2601 -0.425252 10.2782 
221 1 58.71 8.0367 3.46282 -0.00889056 4.75376 1.6328 -4.03704 
222 1 58.71 9.87961 2.16037 -1.00901 -2.25162 -4.13528 0.745465 
223 1 58.71 9.55782 3.48131 1.71825 1.02315 -8.47257 2.38956 
224 1 58.71 -5.40562 5.02335 -1.09638 -2.68835 4.94804 0.220698 
226 1 58.71 -6.8395 5.7273 1.25812 4.37805 -1.77191 -7.52606 
227 1 58.71 -5.90989 7.79872 0.812431 6.81414 -1.02657 -0.0622045 
150 1 58.71 -4.11581 7.67058 -0.975405 -4.28445 -2.07312 1.82629 
228 1 58.71 -1.91711 5.17297 0.562307 -6.02141 2.02696 -1.83736 
229 1 58.71 -2.35381 7.60004 0.631764 4.42257 -0.357389 -7.53056 
310 1 58.71 -4.19036 6.05645 0.940728 1.46301 -0.845849 -2.42149 
217 1 58.71 0.0216146 5.42289 -0.934767 8.31893 0.252848 -2.4909 
231 1 58.71 -0.029292 7.44858 0.679956 -3.02535 5.39028 8.22223 
233 1 58.71 3.78068 5.32633 -1.15333 -3.99038 7.09661 1.88313 
234 1 58.71 2.07228 5.7434 0.442463 2.71493 2.19724 -1.14328 
235 1 58.71 3.18419 7.63666 0.614016 -0.450054 -3.93316 4.52681 
315 1 58.71 4.10415 5.63965 1.69152 0.839545 -8.918 -0.47817 
316 1 58.71 5.78713 7.31118 0.727741 -3.12452 0.231504 4.59903 
238 1 58.71 8.0125 5.81384 0.149832 2.67898 -8.56699 -2.4668 
239 1 58.71 10.1656 5.23214 -0.563129 -1.82398 -0.873744 -0.646192 
240 1 58.71 9.40931 7.47267 0.87701 0.100896 0.980787 1.05649 
241 1 58.71 -6.06998 9.47775 -1.05299 2.31536 -0.715575 -4.90432 
245 1 58.71 -4.08519 9.67151 0.842627 4.56841 0.276874 4.21581 
166 1 58.71 0.386928 9.81822 -1.14416 -3.38179 -0.383055 0.115155 
244 1 58.71 -1.03572 9.68228 0.577474 -2.91834 -5.97496 2.61619 
246 1 58.71 1.42379 9.19329 0.853211 -2.53641 3.02747 -9.27096 
248 1 58.71 4.15229 10.0752 0.431082 -2.78684 -3.85342 -3.1971 
186 1 58.71 6.63373 10.6789 -1.05884 0.697084 4.07385 -0.52963 
249 1 58.71 7.45325 8.215 -1.16862 3.9242 -1.61939 4.65226 
251 1 58.71 7.68089 9.50949 0.847104 -0.525651 3.12337 1.15231 
173 1 58.71 9.64153 9.2468 -0.773371 -1.56638 5.4123 0.386006 
242 1 58.71 10.8129 9.73448 1.0458 6.68299 -3.02245 2.51905 
252 1 58.71 -5.12207 -5.03972 3.27668 5.24734 2.15991 -8.9725 
332 1 58.71 -7.18039 -6.46057 3.38119 0.638239 4.57582 0.416548 
243 1 58.71 -1.80389 -6.99759 2.16241 3.57566 4.57804 4.43721 
253 1 58.71 -3.47943 -5.09092 1.78196 -4.72155 1.81731 -1.98822 
254 1 58.71 -2.81755 -4.97825 4.09864 9.81235 -1.3752 -4.64017 
322 1 58.71 -3.7733 -7.19112 3.41078 -4.17505 4.46749 -6.30885 
255 1 58.71 1.05384 -5.84237 3.69358 2.93792 -4.80645 -5.11293 
266 1 58.71 -1.09904 -4.65561 2.12869 8.29456 -0.830635 2.60665 
340 1 58.71 -1.05474 -6.42609 4.66318 3.84257 -0.759678 1.57864 
199 1 58.71 3.11962 -4.65649 3.22111 2.39663 4.94513 3.2579 
257 1 58.71 2.49506 -6.52475 1.77182 0.305433 2.23524 -1.71093 
260 1 58.71 4.77542 -6.98571 2.83205 -4.88597 0.868341 -1.35284 
345 1 58.71 6.93405 -4.92418 3.3566 -5.55369 -7.02919 1.4029 
189 1 58.71 9.18146 -6.63194 1.93422 -5.56336 0.176236 -4.89601 
262 1 58.71 9.28074 -4.46598 3.31424 -4.58063 -3.50606 3.94142 
348 1 58.71 8.4272 -6.71208 4.32481 -2.11608 -2.03863 3.80441 
192 1 58.71 -4.95865 -3.13541 1.87777 -4.10191 3.57674 -8.14741 
263 1 58.71 -6.53593 -1.41727 4.52339 -11.2867 9.25278 1.27233 
265 1 58.71 -7.07722 -3.22749 3.03604 0.0878477 5.98735 1.94546 
267 1 58.71 -2.63052 -2.58415 1.93612 -0.177612 7.80516 6.03136 
268 1 58.71 -4.13905 -2.80759 4.2174 3.62069 1.01357 6.42773 
269 1 58.71 -2.20567 -1.3222 4.50324 0.47664 -0.568664 -1.39174 
270 1 58.71 -0.368058 -1.76993 2.5627 3.78275 -2.91115 0.910681 
271 1 58.71 1.22497 -3.83434 2.02555 -0.815389 -0.525219 3.11278 
272 1 58.71 -0.702051 -3.4473 4.33625 -1.63818 -3.66225 1.64196 
273 1 58.71 1.57232 -2.88013 4.39914 -6.03806 -2.56502 -0.940011 
274 1 58.71 3.37159 -2.63052 2.54253 5.1439 8.3747 3.02526 
278 1 58.71 5.72188 -2.64709 3.53629 1.14226 -3.71657 8.55275 
259 1 58.71 8.01317 -2.5868 2.8636 -0.936115 -4.38623 3.38539 
282 1 58.71 -4.6069 -0.574043 2.54141 0.638341 0.591932 -4.43368 
291 1 58.71 -6.1083 1.54613 2.66051 6.33275 -3.08633 -2.62814 
295 1 58.71 -1.56345 1.55329 3.30173 0.260862 -2.46836 3.07968 
283 1 58.71 0.695462 1.08461 2.38108 6.10178 3.7027 3.84837 
284 1 58.71 -0.0360879 -0.188256 4.2881 -4.2737 -4.09465 5.06723 
277 1 58.71 4.04804 -0.467488 4.33757 -5.61092 -9.4681 2.85503 
285 1 58.71 2.08233 -0.891844 3.07604 -1.94492 0.78597 3.44701 
286 1 58.71 3.37317 1.05087 2.30386 -1.47298 -0.978241 4.03615 
299 1 58.71 2.2089 1.36178 4.31857 0.88718 -3.92429 7.42019 
276 1 58.71 5.43154 -0.442618 2.19178 3.47886 -3.8502 2.47775 
287 1 58.71 5.53479 1.36609 3.60988 -1.6227 5.56377 -4.81696 
289 1 58.71 7.61673 0.30841 2.71991 0.51515 -0.828259 -3.38029 
362 1 58.71 7.51886 -0.954277 4.4649 -2.42045 -7.97908 3.99202 
288 1 58.71 9.77259 -0.611997 3.29431 6.02272 4.33343 4.3457 
290 1 58.71 10.1153 1.72278 3.7834 -3.35889 -7.16422 -0.22355 
379 1 58.71 7.85237 1.54012 4.63156 0.398089 -0.966515 -3.26825 
292 1 58.71 -6.55501 4.06484 3.05051 3.23033 2.89673 -6.28467 
309 1 58.71 -4.66564 4.67483 4.78295 1.45047 -6.82931 -0.369627 
294 1 58.71 -3.50215 1.76554 1.78655 0.552451 1.88968 -4.18365 
296 1 58.71 -1.86956 3.73696 2.18155 -0.535473 -2.53577 -3.58535 
297 1 58.71 -4.26365 3.99937 2.54764 -6.26357 -0.607966 -2.7912 
370 1 58.71 -4.1729 1.92401 4.1381 5.40189 -4.00101 1.10664 
386 1 58.71 -2.23829 3.82602 4.42463 -0.897258 4.01212 4.65934 
300 1 58.71 0.0188758 3.47409 3.14517 1.13334 2.41915 -3.99807 
389 1 58.71 1.58554 3.82505 4.8046 1.92439 0.75158 -3.94499 
301 1 58.71 2.78176 3.15164 2.39144 -4.33933 -2.55667 5.52814 
303 1 58.71 5.12033 3.45535 2.62513 -2.75243 -1.5287 1.6411 
305 1 58.71 6.68491 3.66035 4.12196 -2.38509 -1.28238 -3.21811 
306 1 58.71 7.59292 2.48017 2.06449 5.24019 5.7829 1.872 
307 1 58.71 9.05606 3.93262 4.01879 3.4662 7.57926 -14.1139 
293 1 58.71 -7.00708 5.57439 4.52685 -1.86546 2.14814 3.97332 
308 1 58.71 -5.29995 6.37181 3.09087 1.73844 -2.38192 -2.41362 
333 1 58.71 -7.15254 7.7363 2.99535 2.97559 2.65372 5.56637 
311 1 58.71 -2.70766 5.8767 3.05901 7.17518 1.22532 6.8035 
398 1 58.71 -2.58129 7.54333 4.66634 -2.40595 2.57888 1.10745 
232 1 58.71 -0.415525 5.61934 2.1104 6.36947 4.81278 4.70347 
313 1 58.71 -0.49331 6.23252 4.43654 -1.17707 2.36599 -7.01333 
326 1 58.71 1.10857 7.59047 2.7529 5.02033 -0.272896 -2.99706 
314 1 58.71 1.82406 5.36881 2.56613 4.6371 -9.39057 -6.82013 
330 1 58.71 3.68368 7.31074 3.32654 9.14283 0.686304 2.81989 
400 1 58.71 1.78856 6.58007 4.72197 -6.7527 0.975759 -1.58903 
402 1 58.71 3.73309 5.166 4.13989 -5.62969 1.70317 -2.91676 
304 1 58.71 7.26497 5.44982 2.43785 3.81325 -3.69623 -0.240078 
317 1 58.71 7.71716 7.71467 2.32034 -3.62685 -6.02427 -9.9692 
319 1 58.71 5.66489 6.81375 4.19299 4.44591 -0.109096 1.16811 
320 1 58.71 9.64925 5.7753 2.58401 5.16296 -1.72181 -5.82495 
408 1 58.71 9.61082 6.92412 4.63665 1.79514 2.98386 1.39899 
321 1 58.71 -5.40602 9.63543 2.68415 -2.87044 -0.924162 7.79934 
412 1 58.71 -6.72361 9.31137 4.75617 3.55246 -5.18112 -3.15796 
312 1 58.71 -3.61919 8.02555 2.64652 3.24012 4.06454 -1.55691 
323 1 58.71 -1.87586 9.61793 4.0355 -2.30838 -14.9622 0.399852 
230 1 58.71 -1.08297 8.12242 2.70053 2.23001 4.1568 -3.99628 
325 1 58.71 0.317723 9.94304 2.9412 5.30994 -3.63145 -2.62943 
247 1 58.71 3.08097 9.59229 2.50448 -1.74283 1.77072 -1.2381 
318 1 58.71 5.42215 8.96139 2.47429 4.38903 -3.29108 -6.19233 
331 1 58.71 7.05176 10.3801 3.23589 1.47547 4.42438 -3.1645 
335 1 58.71 7.36483 8.42571 4.61308 -3.75635 4.8501 -0.451634 
421 1 58.71 5.03513 9.26829 4.72893 7.18929 -4.9532 -1.93334 
334 1 58.71 9.39063 9.5841 2.92118 -2.70321 -3.84041 -4.91091 
338 1 58.71 -4.36201 -4.75358 5.90816 -1.56537 5.25582 -5.06586 
409 1 58.71 -5.51963 -6.86889 5.23632 4.2323 0.830629 8.02451 
410 1 58.71 -6.37242 -6.6143 7.42008 -3.16115 5.6919 -3.30095 
339 1 58.71 -1.51708 -4.93386 7.67053 -3.85877 0.799796 0.0568507 
413 1 58.71 -3.21459 -7.00649 5.54685 3.91654 0.81293 6.16937 
414 1 58.71 -3.80066 -6.02229 7.79292 -7.38969 -4.70774 -5.42461 
357 1 58.71 0.150386 -4.68278 5.90734 4.4402 -3.43813 0.565524 
415 1 58.71 0.283417 -6.65376 7.83735 -0.285389 0.711812 -5.78937 
256 1 58.71 2.53411 -4.94978 5.39017 -1.52177 4.33867 -9.12446 
329 1 58.71 3.69801 -7.18818 5.02067 -3.33538 -0.739288 -2.38649 
343 1 58.71 2.78878 -6.59971 7.34981 1.40805 -2.15212 -1.27275 
258 1 58.71 5.13036 -4.41247 4.90447 7.31714 -4.95358 8.71751 
261 1 58.71 5.85658 -6.69692 5.05721 -4.21124 -0.219787 4.196 
347 1 58.71 5.12249 -6.42519 7.04874 -7.25906 -6.13156 -1.14845 
349 1 58.71 7.19187 -5.59402 6.59205 -2.70608 0.58128 1.82193 
336 1 58.71 10.3784 -5.9602 5.52529 1.51856 -5.48738 3.00109 
500 1 58.71 9.14634 -6.8424 7.51555 1.58534 -4.51449 -0.688765 
337 1 58.71 -6.12646 -4.2482 7.32102 4.7143 -0.894456 -7.58349 
350 1 58.71 -6.69524 -4.05113 5.09227 -11.5106 0.636575 3.50184 
352 1 58.71 -5.25687 -2.12777 6.3683 4.34591 0.633311 -6.01134 
354 1 58.71 -2.35708 -3.52398 6.07968 2.39907 3.10579 0.161518 
355 1 58.71 -2.56683 -1.48791 6.8075 -1.89251 2.97846 -2.67329 
356 1 58.71 -0.345779 -1.87315 6.01267 -4.64244 2.72871 -9.45682 
275 1 58.71 3.76435 -2.61286 4.95346 -5.71667 3.20281 8.01423 
342 1 58.71 1.8498 -2.62928 6.8121 -3.39581 2.17313 3.23344 
344 1 58.71 4.11353 -4.00986 7.245 8.13684 3.05919 4.95674 
279 1 58.71 7.41855 -3.44406 5.34492 -6.03956 8.65075 -3.70224 
360 1 58.71 5.66801 -1.95589 6.17474 -3.4786 -3.30472 -7.44652 
280 1 58.71 9.3412 -2.39345 4.91867 -4.26474 -1.72574 -0.511609 
365 1 58.71 10.5132 -2.07867 7.14063 -6.12259 0.254438 -1.41839 
366 1 58.71 9.44193 -4.13152 6.57291 -1.88974 1.43344 1.46836 
351 1 58.71 -6.59948 0.119509 7.34995 2.32888 0.46011 -1.0772 
367 1 58.71 -6.36419 1.03737 5.14691 0.583487 0.648026 1.75022 
368 1 58.71 -4.27074 0.185902 6.46392 -3.09437 -4.58756 2.40208 
369 1 58.71 -2.23824 0.754167 5.49631 1.31467 0.223377 -1.51508 
358 1 58.71 1.73938 -0.437608 7.86306 -1.79359 7.20095 -1.10607 
372 1 58.71 0.10365 0.534342 6.58713 0.292216 1.16173 -0.556279 
359 1 58.71 3.99992 -1.17344 7.46775 4.76996 -0.376277 4.99282 
373 1 58.71 2.25091 -0.653547 5.6061 0.659558 1.65904 1.4973 
375 1 58.71 3.80526 1.17823 6.11988 5.82408 5.93626 -1.36034 
376 1 58.71 6.01055 0.160276 5.75481 -4.87311 -2.98091 -7.20921 
364 1 58.71 7.84357 -0.686673 6.87732 -7.99156 0.223774 -0.47188 
377 1 58.71 8.09424 1.64096 7.47974 -6.54884 -2.23001 -1.86625 
380 1 58.71 9.75402 0.201613 5.95817 -5.2765 -3.0976 -8.88072 
382 1 58.71 -5.75181 2.61605 7.14152 -0.739141 4.47935 2.54201 
383 1 58.71 -6.71574 3.41096 5.05673 3.43615 -2.93962 1.96756 
385 1 58.71 -3.37059 3.14691 6.49878 -7.26596 3.15682 -2.32737 
388 1 58.71 -0.0179291 2.25392 5.09537 4.80727 3.84489 2.7729 
390 1 58.71 1.63435 2.55038 7.06071 -3.13355 -1.70692 8.2416 
465 1 58.71 -1.0252 2.61162 7.02664 -0.941023 -3.67941 2.26636 
302 1 58.71 4.12912 3.00723 4.87366 -0.217656 2.58308 3.34288 
391 1 58.71 4.20055 3.2336 7.42857 3.20963 -5.2404 -4.67274 
392 1 58.71 5.96549 2.48942 6.16858 -0.666042 6.72193 2.15828 
394 1 58.71 7.68631 3.83359 6.62927 6.52514 -0.450078 -9.15699 
381 1 58.71 9.88553 2.81407 6.26431 -10.598 -0.0447663 0.00593661 
384 1 58.71 -5.61306 5.62368 6.95908 6.25806 1.94167 3.56684 
395 1 58.71 -5.24892 7.40478 5.28535 2.45626 -0.257161 -6.29722 
396 1 58.71 -7.31812 7.48139 6.45849 9.00713 -5.79263 1.59989 
387 1 58.71 -3.03571 5.74628 6.34557 -4.30176 0.972101 -0.998366 
399 1 58.71 -1.12914 7.08315 6.65108 4.22137 -5.572 4.02912 
401 1 58.71 1.53619 7.36601 7.00431 4.22604 7.26794 -1.00357 
464 1 58.71 0.169924 4.83933 6.52559 -7.57957 0.179592 -4.35884 
403 1 58.71 3.84686 6.95564 5.88129 10.3693 1.13348 -5.75872 
479 1 58.71 2.66325 5.07697 6.92965 2.62108 4.29836 2.41818 
393 1 58.71 5.06824 5.0552 6.24497 -5.27693 -5.06794 0.0919648 
404 1 58.71 6.30788 7.72348 6.63261 1.98749 -2.83954 3.05338 
405 1 58.71 7.39547 5.80908 5.20013 -8.22873 -0.857646 10.7047 
406 1 58.71 8.53194 7.02664 6.90969 -2.73453 -5.30364 -1.47421 
407 1 58.71 9.84795 5.16329 6.49336 6.58311 5.76689 2.29757 
411 1 58.71 -4.83766 10.1831 7.01175 -0.165682 2.1377 0.308772 
324 1 58.71 -4.25762 9.29662 4.98611 2.10642 0.57135 -4.59865 
397 1 58.71 -3.75569 7.96283 7.02865 0.277223 -3.54943 -1.6509 
416 1 58.71 -2.1259 9.35908 6.66507 -4.18352 0.944696 -2.09601 
327 1 58.71 1.29535 10.7788 5.58559 -1.36347 -3.74374 -0.688007 
417 1 58.71 0.303238 8.52005 5.33167 0.0407612 -2.55712 4.15651 
328 1 58.71 2.60063 8.9826 4.89663 -1.60807 4.86994 -4.15449 
419 1 58.71 3.71688 9.30341 6.79078 4.30049 -2.98149 -3.98502 
422 1 58.71 7.30805 10.1092 6.21705 1.89076 0.820724 8.4974 
423 1 58.71 9.46365 9.70941 5.66538 -1.90926 11.664 0.565014 
490 1 58.71 10.8079 9.45386 7.8309 -3.00659 -0.95106 -2.24502 
426 1 58.71 -5.47551 -4.81902 9.33602 1.79279 -8.08484 0.215396 
489 1 58.71 -5.25623 -7.34259 9.41154 8.6518 -3.06211 2.71495 
425 1 58.71 -2.82352 -5.00826 9.82719 -4.35365 -2.12441 3.48357 
491 1 58.71 -1.78681 -7.14321 8.9452 5.9768 2.50036 6.12932 
427 1 58.71 -0.38904 -5.09234 9.86141 -3.29242 3.38293 -5.30495 
6 1 58.71 2.46412 -4.44721 10.8457 0.122562 3.27852 7.72983 
341 1 58.71 1.78353 -4.52683 8.41358 9.06351 -3.539 2.62012 
430 1 58.71 4.08282 -5.59928 9.21763 -0.239999 1.39294 -1.464 
494 1 58.71 1.88234 -6.66398 9.60551 4.8844 -1.06854 -2.86441 
497 1 58.71 6.29058 -5.58857 10.617 -1.80209 -2.75104 -3.31228 
433 1 58.71 8.33849 -5.38344 8.79577 -1.51369 4.4004 -7.04983 
434 1 58.71 10.6874 -6.11754 9.46803 2.23931 -2.33343 1.11114 
498 1 58.71 8.63253 -7.2067 9.97163 -2.05883 1.36293 0.775737 
424 1 58.71 -5.86337 -2.13274 9.00507 4.45038 -9.50183 4.78138 
15 1 58.71 -4.22377 -2.72403 10.2405 3.61406 3.49239 -3.91683 
353 1 58.71 -3.81516 -3.46676 7.98859 -1.72369 -5.92307 0.949854 
436 1 58.71 -2.15383 -2.77551 9.20724 2.42447 4.4455 4.51846 
438 1 58.71 -0.11118 -2.14627 10.9157 -7.33901 -0.453664 -2.24427 
439 1 58.71 -0.227368 -3.21002 7.97144 -4.99461 4.23842 -3.63222 
440 1 58.71 2.17641 -2.02316 9.7891 -1.55552 8.3519 0.106054 
443 1 58.71 3.91965 -3.08563 9.33214 2.20585 -6.22074 5.75218 
346 1 58.71 6.18956 -4.2839 8.51603 -2.22937 0.575614 0.873872 
431 1 58.71 5.83465 -3.21199 10.6912 -3.25422 6.59959 5.68276 
363 1 58.71 8.11467 -2.74895 7.91031 -0.916194 -6.8056 1.64509 
444 1 58.71 8.3996 -3.87966 10.5887 2.57973 -0.12511 -0.707387 
445 1 58.71 10.1505 -3.50569 8.93117 -6.27416 -1.38928 -3.26135 
458 1 58.71 7.93549 -1.57463 9.90879 1.26297 4.69876 1.25667 
447 1 58.71 -6.66698 0.025173 9.73662 2.58877 6.99395 1.46266 
448 1 58.71 -4.92958 1.42201 8.95732 -2.83261 -10.4174 -5.00488 
450 1 58.71 -4.46316 -0.228581 10.894 -3.45482 3.49241 -4.599 
435 1 58.71 -2.00151 -0.59368 10.2909 2.16995 4.0116 -5.54977 
437 1 58.71 -3.70848 -0.931386 8.81862 -1.64646 -6.04287 -8.90266 
451 1 58.71 -2.16502 0.659895 7.95138 4.6837 4.16499 -3.23115 
371 1 58.71 -0.278867 -0.968396 8.85551 14.0893 7.91423 -4.1105 
453 1 58.71 1.49062 0.0657164 10.4681 3.82172 -1.71643 -8.9023 
454 1 58.71 0.178117 1.54163 8.89777 1.571 -5.50464 1.02361 
374 1 58.71 3.12239 1.30646 8.50946 -0.233741 2.32597 -3.28373 
442 1 58.71 4.07776 -0.441988 9.60437 -1.45846 -8.00353 3.29789 
361 1 58.71 5.9967 -1.26822 8.47275 2.26534 3.11418 2.29413 
378 1 58.71 5.69938 1.07377 7.99274 -8.80041 -3.35675 5.22632 
456 1 58.71 6.2033 -0.659059 10.9043 2.812 3.15644 -1.34755 
469 1 58.71 7.51451 0.814277 9.49306 -2.20629 0.324928 9.55609 
457 1 58.71 9.44586 -0.273394 8.4868 1.84072 0.517293 9.22812 
459 1 58.71 9.55834 1.16721 10.6055 0.417786 1.17979 3.6104 
56 1 58.71 -5.60367 4.52369 10.7003 7.36781 9.47543 -1.54057 
473 1 58.71 -6.66679 4.19319 8.42107 -3.10561 0.136667 0.902824 
43 1 58.71 -2.85005 4.64241 10.2544 -4.38975 8.5559 -1.06904 
461 1 58.71 -4.12735 3.73144 8.86519 -2.18288 1.28688 6.17675 
462 1 58.71 -2.14718 2.42568 9.61786 -3.16175 0.16463 5.16368 
463 1 58.71 -1.31936 4.72569 8.19929 -1.86207 -2.60433 -0.416814 
42 1 58.71 -0.555576 3.56745 10.7167 -7.4108 -0.956988 8.04984 
466 1 58.71 0.587227 3.79185 8.83974 3.16797 1.85794 -2.79427 