ITEM: TIMESTEP
0
ITEM: NUMBER OF ATOMS
500
ITEM: BOX BOUNDS pp pp pp
-7.66608 11.1901
-7.66915 11.1931
-7.74357 11.2676
ITEM: ATOMS id type mass x y z vx vy vz 
3 1 58.71 -5.66782 -6.06781 -6.58151 0.0394436 10.8411 2.00701 
104 1 58.71 -3.61832 -5.66888 -5.46712 -5.60598 4.63493 0.524017 
201 1 58.71 -0.947172 10.3193 11.3033 -4.62966 -3.07833 6.58994 
204 1 58.71 -0.10301 -6.35752 -6.44787 -10.3186 0.289619 -2.11949 
203 1 58.71 1.61271 -5.30872 -7.68795 7.90294 -6.00634 -11.5073 
202 1 58.71 2.06875 10.9858 -4.19424 -8.35423 2.12149 4.19778 
304 1 58.71 4.47644 -7.5046 10.4847 0.839731 -1.74983 -11.239 
303 1 58.71 5.8509 -5.46409 9.87069 -4.43763 -8.72224 13.8087 
404 1 58.71 6.80552 -5.22641 -7.06303 0.679527 -7.04239 -16.4911 
4 1 58.71 -7.54488 -5.6813 -5.16528 -5.23905 0.137122 -4.09031 
403 1 58.71 8.9513 -6.18343 -6.28825 6.62221 -2.63139 8.17031 
22 1 58.71 -4.84119 -3.67392 -5.39884 3.76474 1.98459 -3.76509 
23 1 58.71 -5.80434 -1.58346 -6.51887 2.19396 11.7906 4.994 
24 1 58.71 10.9137 -2.0784 -4.91491 1.4627 1.08896 -0.536903 
121 1 58.71 -4.50781 -4.14879 11.3394 -10.2872 3.62821 5.30244 
122 1 58.71 -2.15859 -3.87337 -5.9695 -5.83127 4.54189 -13.277 
124 1 58.71 -3.20438 -1.67647 -5.82907 9.32291 -5.07784 -3.05448 
221 1 58.71 -0.542295 -4.36502 -7.75157 -10.8266 0.152882 -2.55076 
224 1 58.71 -0.520386 -2.05023 -6.79383 0.414688 7.88209 -5.42596 
222 1 58.71 0.134322 -4.0596 -5.46169 -2.11346 -6.91855 1.87977 
321 1 58.71 1.84443 -2.98645 -7.47222 7.50355 7.60425 5.16656 
324 1 58.71 1.45695 -1.0825 -3.96746 -8.97934 0.321284 1.61601 
322 1 58.71 4.93689 -3.78954 -6.33629 1.36113 8.35912 -2.61053 
323 1 58.71 3.99256 -2.25754 10.9368 -4.45555 -0.113125 5.94835 
424 1 58.71 8.10666 -2.32366 -6.34677 3.32084 -4.83895 6.58094 
21 1 58.71 -6.72918 -3.75994 -6.38866 -0.537742 -0.82905 11.7329 
422 1 58.71 9.44736 -4.09408 -5.99362 -0.0259847 0.613477 -4.75629 
423 1 58.71 10.5657 -1.50684 -7.37075 -3.39385 -9.85803 -4.56808 
42 1 58.71 -5.0692 0.213354 -5.7854 -4.47519 -0.0118174 -0.0877226 
142 1 58.71 -2.56845 0.247366 -7.09509 -4.43094 -2.48773 -1.69747 
144 1 58.71 -3.29299 1.63247 -5.523 -5.46264 5.96105 0.356901 
241 1 58.71 -0.632792 0.52637 10.8447 4.97294 -5.13606 6.50321 
242 1 58.71 1.10016 0.1385 -6.40638 -8.67143 -2.29185 7.26837 
341 1 58.71 2.96401 -1.47377 -5.95704 0.740802 -0.566133 0.412964 
243 1 58.71 1.50847 2.09284 -7.72683 10.8861 -16.0886 -4.93991 
342 1 58.71 5.74054 -0.718912 10.0174 1.53921 3.73359 -10.0289 
442 1 58.71 10.0095 0.282227 -5.54382 -3.27193 3.46441 1.98558 
44 1 58.71 -6.88081 1.84996 -6.33239 3.91237 -5.52393 1.75644 
62 1 58.71 -5.52476 3.58721 -5.58766 6.92962 -1.80443 6.04765 
143 1 58.71 -1.39638 2.54614 -7.30628 4.93237 10.9555 1.8181 
161 1 58.71 -3.84731 4.27053 -6.74462 -1.17937 -9.99924 8.09538 
162 1 58.71 -1.39407 4.01859 -5.57939 -6.10529 -2.4814 -12.1171 
244 1 58.71 -0.436748 1.92415 -5.4111 3.57674 2.15688 -4.53233 
262 1 58.71 1.17296 3.35695 -5.8589 -3.70952 2.5984 1.98717 
344 1 58.71 2.85514 1.09351 -5.57999 -4.43134 14.8114 1.78286 
361 1 58.71 2.7427 4.37858 9.71972 7.53248 -3.44682 -10.8763 
362 1 58.71 3.83854 4.7127 -4.25985 8.09311 -6.00725 2.93392 
444 1 58.71 5.87617 2.9884 -6.60819 -0.4876 10.385 1.95379 
461 1 58.71 6.81566 4.79455 -7.23316 -0.0702613 -5.48571 8.06188 
462 1 58.71 10.1079 2.59894 -5.07518 -2.65675 1.08201 2.90323 
64 1 58.71 -7.54053 5.55554 -5.14905 -3.80077 0.935345 -3.68161 
82 1 58.71 -6.102 7.59599 -5.50348 6.10245 10.986 2.30623 
164 1 58.71 -3.98393 6.50679 -5.77732 -8.61311 -9.55965 1.2914 
182 1 58.71 -1.94898 7.60194 -5.48499 0.996967 2.7105 -0.955667 
264 1 58.71 0.0723764 5.99783 -4.7344 -11.3998 4.42062 6.52427 
282 1 58.71 2.12149 8.75107 -6.4641 0.90591 2.60881 -4.42735 
364 1 58.71 2.98773 5.36866 -7.40037 3.5588 1.9254 -5.91766 
382 1 58.71 7.07875 7.14373 -6.95699 8.61178 11.9555 -7.27771 
464 1 58.71 8.07131 6.43959 9.92169 4.90058 -7.64888 -1.26453 
482 1 58.71 8.70724 6.33589 -5.09545 9.42729 -5.14 11.639 
2 1 58.71 -5.54236 11.033 -4.91596 3.83887 -4.41722 1.53885 
83 1 58.71 -5.34126 9.39621 -7.20376 -4.01939 -2.48809 2.96965 
102 1 58.71 -2.36118 11.1523 -6.07321 1.77635 0.296677 2.60539 
184 1 58.71 -3.9311 9.07141 -5.35028 -4.89291 5.14807 3.85685 
284 1 58.71 0.410695 10.5596 -5.71221 0.974362 4.2335 -2.27575 
384 1 58.71 4.40555 9.01307 -6.21483 3.30587 -13.762 -10.8944 
302 1 58.71 3.84814 -6.38942 -5.22911 -2.79707 5.63994 1.56763 
383 1 58.71 6.27426 8.67222 11.0166 -8.21057 -3.59383 9.35042 
484 1 58.71 6.58105 8.5352 -4.88093 -8.35207 -1.59483 5.46846 
402 1 58.71 6.15138 -7.5181 -5.92672 1.93978 1.00109 -12.4206 
84 1 58.71 -7.4357 9.80904 -4.96047 -0.313393 -4.2709 -7.35727 
7 1 58.71 -5.28116 -5.44096 -3.39907 3.89567 1.52302 3.16582 
8 1 58.71 10.8742 -5.44746 -1.93616 -2.38104 3.36378 -1.08512 
105 1 58.71 -3.22906 -7.41497 -3.49063 3.40049 -4.67129 6.05465 
107 1 58.71 -1.37209 -5.15045 -3.91546 4.74737 1.66264 9.88886 
108 1 58.71 -2.99951 -5.76041 -1.96669 -0.943896 -1.70793 0.541924 
208 1 58.71 -0.029472 -5.39758 -1.82001 2.55048 1.88261 -0.220264 
207 1 58.71 0.991012 -5.91557 -4.07491 -5.65508 2.87627 6.09262 
308 1 58.71 2.38996 -4.84799 0.0275706 -4.03269 12.5516 -2.57863 
307 1 58.71 5.12451 -4.49226 -4.21335 0.674002 2.05454 4.63216 
408 1 58.71 8.19789 -4.83747 -1.89698 -8.73628 5.24013 -0.671114 
407 1 58.71 9.64431 -6.0971 -3.96013 -8.33339 -0.703632 -0.333172 
26 1 58.71 -4.91931 -3.66951 -2.04033 6.13789 4.72796 -0.539188 
27 1 58.71 -5.43068 -1.97485 -4.10761 -2.65952 5.95696 5.93208 
125 1 58.71 -3.08898 -3.52408 -3.69468 3.4817 -0.68845 0.389721 
126 1 58.71 -1.96051 -3.5709 -1.44781 -2.19605 -6.75066 0.0393376 
127 1 58.71 -1.31395 -1.50264 -3.29977 13.5605 4.21303 8.19771 
128 1 58.71 -3.4724 -1.43155 -1.99174 3.08596 -1.6782 5.13537 
225 1 58.71 0.147784 -3.32675 -2.97557 5.17278 5.3274 -5.42704 
228 1 58.71 0.142726 -2.23173 -0.988607 2.60478 -2.64829 -3.90835 
227 1 58.71 0.279338 0.599657 -2.9932 1.23323 10.0547 3.2992 
226 1 58.71 2.02575 -4.36082 -2.39733 -8.30043 -6.835 -1.00408 
325 1 58.71 2.6224 -4.35643 -5.42528 4.19912 14.5548 -8.0799 
328 1 58.71 4.73953 -1.15116 -0.22246 8.30923 -4.5443 -0.101836 
326 1 58.71 6.46849 -2.54606 -2.56922 11.4743 1.74037 -5.00723 
327 1 58.71 3.95269 -2.85259 -3.02932 8.04893 -3.06 2.4538 
425 1 58.71 7.34504 -4.38322 -4.23006 7.0037 4.76835 0.95075 
428 1 58.71 7.59032 -0.16622 -2.00533 14.9716 -8.07747 -7.52822 
25 1 58.71 -7.08548 -3.87811 -3.82796 -3.6621 5.02703 -0.257371 
28 1 58.71 -7.17153 -2.2359 -2.2286 3.13817 -1.8491 -0.685623 
426 1 58.71 9.52561 -3.74023 -3.50359 5.46064 -2.77151 -7.81591 
427 1 58.71 8.70306 -1.48502 -3.86165 -0.902926 -2.79212 7.59003 
45 1 58.71 -7.29495 -0.14017 -3.52181 6.21547 -1.67668 2.21257 
46 1 58.71 -5.54183 -0.338363 -1.93458 3.53456 -3.55787 2.36972 
47 1 58.71 -5.29389 1.79565 -3.85139 -9.13987 4.99547 -6.97164 
48 1 58.71 -7.52612 1.63211 -2.10375 10.5356 -5.23276 3.89224 
145 1 58.71 -3.73092 -0.225972 -4.07604 7.59982 0.911158 2.38963 
146 1 58.71 -1.65571 0.531538 -1.4575 -7.64767 -8.04919 4.98941 
148 1 58.71 -3.80659 1.35206 -2.07687 0.935965 -6.90264 0.319147 
245 1 58.71 -1.25312 -0.125155 -4.95878 -0.123155 -2.62795 -10.7493 
246 1 58.71 3.03317 -1.40659 -1.63532 0.611971 -1.8274 -3.19272 
345 1 58.71 4.48107 -0.733982 -3.94485 4.93496 -14.7769 -0.237023 
247 1 58.71 1.91648 2.43309 -3.61996 -11.3226 6.19753 1.72987 
348 1 58.71 5.00977 2.89378 -0.924095 1.30555 -0.563859 2.60562 
346 1 58.71 6.43776 -1.02384 -4.21067 -1.30314 -1.54663 -2.17359 
445 1 58.71 7.93748 0.7929 -4.93264 6.97162 2.04939 -8.32068 
446 1 58.71 9.56718 -0.166967 -0.727756 7.6352 0.351378 -0.752905 
65 1 58.71 -7.20448 3.40166 -3.8513 3.67573 6.69951 -3.29565 
66 1 58.71 -5.3596 3.93398 -2.33862 2.84269 2.28063 -1.09857 
147 1 58.71 -1.8403 1.55103 -3.54149 2.54343 0.129092 -2.6772 
165 1 58.71 -3.58125 3.34694 -4.08862 -4.83017 3.47392 5.733 
166 1 58.71 -2.26439 3.7059 -1.77787 9.95852 -3.12129 -0.251931 
248 1 58.71 0.715537 2.12467 -1.19356 -1.81074 8.65516 1.24171 
265 1 58.71 -0.422035 3.28372 -3.09418 -3.67458 3.10034 -7.78464 
266 1 58.71 1.52162 4.80266 -2.19826 -3.74294 -6.58132 -11.1896 
365 1 58.71 3.90722 2.22325 -3.39445 11.4514 -3.9448 2.55801 
347 1 58.71 5.5053 1.35458 -4.8356 -5.38501 -2.36096 -8.10095 
366 1 58.71 5.85156 3.58311 -3.244 4.09086 -3.14283 -1.3311 
448 1 58.71 7.47449 2.43026 -1.77106 4.96158 6.7483 8.15186 
465 1 58.71 8.62761 4.09975 -6.15258 7.95126 -1.94311 11.2063 
447 1 58.71 9.68353 0.825151 -3.3228 5.53849 -6.02744 -3.46192 
466 1 58.71 9.25501 4.64297 -3.36124 -0.175129 5.47561 1.93096 
67 1 58.71 -5.26752 5.4645 -4.13023 -2.89577 -4.78942 -4.47251 
68 1 58.71 -7.32232 5.60979 -2.47897 2.84292 0.992073 -2.22691 
85 1 58.71 10.9889 7.92793 -3.31225 -1.15223 -3.7802 -2.95786 
86 1 58.71 -5.78665 7.36501 -2.15565 -10.4997 -2.88999 9.74076 
167 1 58.71 -2.18198 5.62606 -4.15475 1.02355 4.15358 -12.4779 
168 1 58.71 -3.71839 5.51514 -2.0322 6.80171 2.576 0.911116 
185 1 58.71 -3.82027 7.49285 -3.52956 -5.30013 -1.90426 -6.51446 
186 1 58.71 -1.81673 7.80472 -2.56516 8.03868 4.59299 -2.8111 
268 1 58.71 -0.675019 5.59144 -2.24626 -2.7373 -1.5552 -13.2196 
285 1 58.71 0.0998442 8.27776 -4.31901 0.142698 1.2058 -9.19377 
267 1 58.71 2.34273 6.34743 -5.2263 7.52429 -0.742794 -4.33908 
286 1 58.71 0.98253 7.33161 -2.19958 -7.46979 9.74557 3.09797 
368 1 58.71 2.84086 6.30921 -0.535374 -7.75106 12.8115 0.147317 
385 1 58.71 4.89611 6.52387 -5.67746 -8.41529 -0.714866 -8.91615 
367 1 58.71 6.84117 5.72663 -4.87626 2.38556 -6.36868 -4.98965 
386 1 58.71 4.0799 7.41213 -3.00004 -15.3559 -8.76229 3.22884 
468 1 58.71 5.82525 5.24493 -0.743866 -6.16439 -9.61917 -4.2333 
485 1 58.71 7.78963 8.108 -2.95103 3.97288 6.94212 -1.74383 
467 1 58.71 9.39379 6.56434 -2.39266 12.4668 -2.7675 6.66724 
486 1 58.71 9.7047 8.6991 -1.53624 8.52092 2.13453 0.91601 
6 1 58.71 -5.09521 -7.25915 -1.79714 0.371318 -4.19637 3.2815 
87 1 58.71 -5.01699 9.38929 -3.23746 -1.25791 -3.50505 2.76934 
106 1 58.71 -1.04194 -7.59822 -0.994326 -1.63273 0.617985 -1.66597 
187 1 58.71 -2.06297 9.55329 -3.82074 6.86678 0.862423 1.72445 
188 1 58.71 -3.08462 9.66438 -1.70267 7.13869 0.472777 -2.7869 
205 1 58.71 -0.711799 -7.62825 -3.46881 -2.88321 -1.26204 -0.603962 
288 1 58.71 -0.150709 9.49578 -2.03932 0.777642 -6.28042 0.525086 
206 1 58.71 1.81954 -7.54794 -1.80611 6.37199 0.447002 1.96607 
305 1 58.71 3.3358 -5.78271 -2.35366 -8.14295 0.110519 4.28754 
287 1 58.71 2.96464 8.5961 -4.21518 0.74822 0.715277 -12.2585 
388 1 58.71 5.33809 -7.18419 -1.64907 -2.95374 -0.449777 -1.24244 
306 1 58.71 5.84074 -4.90984 -2.04586 1.64204 13.31 -5.98471 
405 1 58.71 6.81212 -6.47423 -3.84241 -5.1608 3.25672 1.10089 
387 1 58.71 5.06245 10.0014 -3.7069 -1.56258 9.28629 -8.6896 
488 1 58.71 6.53606 9.80689 -2.13849 -2.51498 2.59623 -8.28467 
5 1 58.71 -6.9029 -7.17847 -3.21748 6.10884 5.59818 0.497055 
406 1 58.71 9.22481 10.657 -2.8968 -12.1046 2.68419 -3.19477 
88 1 58.71 -7.12514 9.64467 -2.12147 5.6365 -0.874917 1.8055 
487 1 58.71 9.06408 9.04492 -4.64883 2.00074 7.70674 -1.38105 
11 1 58.71 -5.21438 -5.54018 -0.267257 -6.28897 3.99603 4.61941 
111 1 58.71 -1.45533 -5.74548 0.304061 -0.813558 -1.64173 -1.85391 
110 1 58.71 -1.82413 10.9755 1.68759 2.56614 -4.00632 5.20347 
211 1 58.71 3.01585 -6.39035 1.99695 1.24178 10.5487 -5.95718 
212 1 58.71 -0.622495 -5.81569 2.73546 -5.3356 6.33642 -1.6016 
210 1 58.71 1.25048 10.5717 1.9882 -0.0400203 -7.41197 2.55274 
311 1 58.71 4.70679 -5.84386 0.50225 -1.82776 -2.56889 4.64112 
412 1 58.71 6.54508 -4.89483 2.72331 2.89215 -8.67359 5.24126 
411 1 58.71 9.38256 -5.0638 -0.271754 0.603105 -6.04378 6.80187 
29 1 58.71 -6.84828 -3.97884 -0.432119 0.167371 7.56964 3.23162 
31 1 58.71 -5.17733 -1.85807 -0.178544 -9.22873 -7.38014 3.49389 
129 1 58.71 -3.52753 -3.84975 0.230025 2.2964 -6.12378 -1.2581 
131 1 58.71 -2.1946 -1.79618 0.00146194 7.43996 7.84199 2.24278 
130 1 58.71 -1.99981 -3.78269 2.51981 -3.0116 -3.62975 -2.99471 
229 1 58.71 -0.0241407 -4.02663 0.908672 -3.74466 -2.26961 -11.5054 
231 1 58.71 2.90871 -2.85229 0.739201 -4.77076 7.42035 1.71801 
232 1 58.71 -0.352155 -1.9363 2.02417 2.51287 -5.73583 2.98123 
329 1 58.71 1.51978 -4.23701 2.56347 -6.10713 -7.10199 -2.46793 
230 1 58.71 1.31048 -6.71174 4.08284 0.330077 -7.08267 -11.07 
331 1 58.71 6.50843 -1.90872 2.48887 1.61731 -8.96454 6.96994 
429 1 58.71 6.79868 -4.59031 0.199487 11.2732 2.67999 2.688 
330 1 58.71 4.15283 -3.82141 -0.837229 -3.62173 -7.67521 -13.6615 
432 1 58.71 4.99972 -1.40175 4.51673 -9.86956 8.59273 6.42155 
431 1 58.71 9.16868 -2.27324 -1.58579 -3.236 0.346851 -3.92595 
430 1 58.71 8.55479 -3.62171 3.92388 -9.96915 -1.90179 6.90512 
51 1 58.71 -5.70373 1.49372 -0.277939 -4.13658 -8.34252 6.72596 
149 1 58.71 -3.6867 0.282005 0.0359806 -2.23599 1.60603 -3.00624 
249 1 58.71 0.242793 0.254332 0.289851 5.21663 1.18851 -6.91773 
252 1 58.71 -0.224335 1.48426 2.23566 8.98324 0.0512913 1.57216 
349 1 58.71 5.49842 0.988003 -2.24944 12.8111 3.85647 -4.25497 
251 1 58.71 2.69121 3.39482 -0.346925 5.75793 0.235452 5.56737 
449 1 58.71 7.18917 0.758577 0.246739 3.85435 -5.48399 1.22807 
351 1 58.71 7.38234 3.56413 0.573107 -7.90932 -11.7838 -1.30144 
452 1 58.71 8.48959 1.96974 2.60613 2.99834 5.7019 -3.42466 
49 1 58.71 -7.20129 -0.592669 -0.225196 12.8539 -3.83578 6.81634 
450 1 58.71 7.9949 -1.2945 0.63103 -6.42787 -1.93078 2.8434 
69 1 58.71 -7.08609 3.60835 -0.5329 -4.01741 2.54212 -7.3105 
52 1 58.71 -7.56642 1.92242 1.30425 -7.38825 -3.13841 2.30537 
151 1 58.71 -1.86875 2.13779 0.407957 1.01251 -5.80911 2.19455 
169 1 58.71 -4.0814 3.55471 -0.018688 0.380429 -3.50152 -7.67614 
269 1 58.71 -0.357077 4.01096 -0.246032 4.04214 0.435263 -1.72876 
270 1 58.71 0.635847 3.78001 2.38652 -7.16079 -8.75492 6.64412 
369 1 58.71 4.41631 4.00959 0.702746 0.816751 2.32878 0.21342 
469 1 58.71 9.57175 2.03565 -0.306895 -2.0384 2.8423 0.209647 
370 1 58.71 5.6965 2.66901 2.19867 -6.97572 -2.05212 -4.75501 
451 1 58.71 10.51 -0.378827 1.85833 9.34456 -4.53084 10.7472 
71 1 58.71 -5.54188 5.53792 -0.436444 6.03613 -1.95219 0.216248 
89 1 58.71 -7.32621 7.62982 -0.313584 -6.97269 2.46222 2.56655 
171 1 58.71 -2.43023 5.41011 0.112899 1.25768 -4.40876 0.944011 
189 1 58.71 -3.8625 7.27443 -0.46101 -3.66312 8.20084 -4.22861 
289 1 58.71 -0.429708 7.19695 -0.232699 6.67698 0.114195 -6.89579 
271 1 58.71 1.89728 5.46369 1.62242 -5.88336 5.57695 -10.8525 
272 1 58.71 -0.644423 5.89663 1.55095 -2.28681 -3.33679 0.19414 
290 1 58.71 1.7882 7.52472 0.740362 2.93438 -2.89213 1.81266 
389 1 58.71 5.33661 9.8006 -0.281012 -4.11928 5.5556 6.13993 
371 1 58.71 6.93853 6.73738 0.557892 3.49854 -1.03094 1.94722 
489 1 58.71 5.97812 7.55088 -1.96222 -6.65859 -9.17999 -18.4846 
471 1 58.71 9.92277 5.58939 -0.723747 7.67497 5.28799 -6.74548 
91 1 58.71 -5.3901 9.68807 -0.531162 0.801883 7.92747 6.83763 
109 1 58.71 -3.43304 -7.28867 -0.0667572 -2.63419 -1.3567 5.70381 
191 1 58.71 -1.74252 8.95097 0.114791 -6.64813 4.57385 4.08316 
209 1 58.71 0.446765 -6.78134 0.514345 -3.69786 -0.901264 6.7117 
292 1 58.71 -0.404827 8.48959 2.14345 3.2196 -0.961582 -4.23181 
309 1 58.71 3.75133 9.57543 -1.65767 -0.874082 -6.2265 -5.88243 
291 1 58.71 1.29639 9.76561 -0.190805 -3.73055 -1.19771 6.95034 
392 1 58.71 3.56293 9.09285 1.04921 0.914665 3.43264 3.26152 
409 1 58.71 7.74049 -7.19426 -0.875596 4.96592 -9.55523 5.17531 
391 1 58.71 6.70014 -6.69616 1.06095 0.310479 2.23602 4.70073 
492 1 58.71 6.24763 9.24894 1.86549 1.9098 4.47556 -0.93564 
9 1 58.71 -6.85893 -7.16697 -0.44287 6.33473 4.13397 1.14111 
491 1 58.71 9.94422 10.959 -0.334653 0.0537906 -0.089287 5.66922 
10 1 58.71 -5.54689 -7.55692 1.51196 -1.78247 2.7796 -2.27333 
15 1 58.71 -5.72775 -5.89556 3.41041 -6.01324 3.17384 -0.19596 
112 1 58.71 -3.60215 -5.87432 1.85524 -0.0553093 -1.52748 2.05463 
113 1 58.71 -4.00229 10.9648 3.12703 -7.25305 6.24162 4.61812 
115 1 58.71 -2.7777 -5.89173 4.06318 -3.45471 -2.87306 5.18967 
213 1 58.71 -0.870473 11.1124 4.22766 -8.8903 2.44087 -0.572773 
215 1 58.71 3.30413 10.3931 3.28647 0.159936 -5.22306 -9.16147 
312 1 58.71 5.57403 -7.43575 2.97119 5.47097 -2.34478 7.87946 
315 1 58.71 4.60052 -3.68492 1.68502 4.03237 -11.898 -0.26511 
413 1 58.71 5.67265 -3.78854 4.35327 8.77007 0.930108 -3.93903 
12 1 58.71 -7.32397 -5.62919 1.35888 1.93034 10.5747 -8.23962 
13 1 58.71 10.9722 11.0256 2.59294 -0.482705 -0.731081 -5.03196 
415 1 58.71 9.96652 -5.82865 4.09211 7.11153 -0.12998 1.5453 
30 1 58.71 -5.60292 -4.05995 1.72454 -2.31398 -1.54825 3.18578 
35 1 58.71 -6.22278 -1.77081 3.7231 1.70489 -1.10976 5.92794 
132 1 58.71 -3.99337 -2.08663 2.13804 -2.79885 -6.37634 8.73874 
133 1 58.71 -4.27916 -3.74863 3.81323 -0.877982 3.41958 1.00888 
135 1 58.71 -2.25071 -1.98596 4.25928 -5.99753 3.941 7.33977 
233 1 58.71 -0.813454 -4.05992 4.65501 -4.67671 -0.973412 7.2119 
235 1 58.71 1.04499 -2.37865 3.89447 2.05048 3.8841 6.29647 
332 1 58.71 3.59641 -1.64833 3.01411 -12.5224 2.58221 -3.5685 
333 1 58.71 3.36485 -4.09775 4.11062 -0.683556 2.14772 -0.141504 
335 1 58.71 3.38697 0.780552 2.91069 8.59787 8.10076 2.09044 
433 1 58.71 6.55699 -5.80708 5.4304 0.115804 11.2533 -1.69574 
32 1 58.71 -7.62529 -2.36263 1.82572 -0.124258 -0.46305 3.85046 
33 1 58.71 -7.50348 -4.09088 3.43256 -7.81949 -4.29235 7.86863 
435 1 58.71 6.52784 -0.399893 6.18578 11.4667 7.70664 1.86731 
50 1 58.71 -5.81965 0.244536 1.53714 -0.858234 -1.7482 12.8409 
53 1 58.71 10.0338 -1.40376 3.92312 -8.08282 0.579546 -4.04024 
150 1 58.71 -2.20502 -0.25891 2.47049 6.11674 2.46552 -1.05735 
153 1 58.71 -4.21857 -0.232002 3.65387 0.78306 0.710759 1.08633 
152 1 58.71 -3.53337 1.80146 2.15634 3.29392 -5.33917 2.26201 
155 1 58.71 -2.02624 2.09555 4.00558 0.581024 -4.684 -0.0504923 
253 1 58.71 -0.611281 0.150075 4.26703 -1.38279 5.38154 8.74457 
250 1 58.71 1.45558 -0.242116 2.43919 0.990563 -7.36234 4.00953 
353 1 58.71 2.42305 -0.667033 5.01961 1.02955 4.70746 -7.36303 
255 1 58.71 1.30405 2.04212 4.14826 -2.43561 -17.4801 0.964575 
352 1 58.71 2.96344 1.43356 -0.982015 -0.903844 5.90304 -2.0034 
350 1 58.71 4.61061 0.992706 0.924163 2.95386 1.3593 0.0175094 
453 1 58.71 8.34193 -0.464526 2.72145 1.95436 -10.607 -4.72938 
455 1 58.71 10.5796 1.41077 3.85133 11.3985 -11.537 2.82765 
55 1 58.71 -6.02067 2.0252 3.47413 -1.55157 1.02774 -3.15692 
70 1 58.71 -5.91114 3.93455 1.9314 -2.66684 1.84618 3.31445 
73 1 58.71 -7.19749 4.61735 3.71714 -4.10797 6.40337 2.34862 
170 1 58.71 -1.77957 3.66794 2.12755 2.49311 2.82056 -7.42272 
173 1 58.71 -3.76734 3.55311 3.38704 6.04072 7.82769 -5.96279 
273 1 58.71 -0.592004 4.08716 4.16982 -6.80002 1.01591 -0.860018 
373 1 58.71 1.75664 1.69938 1.24079 -8.11182 -7.47118 -0.225628 
355 1 58.71 6.02729 0.469854 2.93108 -0.555094 -2.96915 -11.7671 
473 1 58.71 9.27968 3.39494 4.31491 -0.36918 -14.3251 -0.110537 
470 1 58.71 9.97088 3.99439 1.69311 -2.73626 5.44767 -2.80163 
72 1 58.71 -7.39504 5.93304 1.2694 0.440639 6.04136 -1.11229 
75 1 58.71 -6.31497 6.49259 3.1231 -3.1466 -1.5588 1.93139 
90 1 58.71 -5.75356 7.65172 1.26995 -1.54236 0.229945 -0.51925 
172 1 58.71 -4.21391 5.51931 1.96041 -7.08138 6.31387 -0.952269 
175 1 58.71 -2.50666 5.57606 3.53989 -1.64725 1.04269 3.57979 
190 1 58.71 -2.54347 7.22174 1.58296 0.905859 7.29972 -2.27643 
193 1 58.71 -4.24316 7.5975 3.05138 2.34003 -3.02745 -2.5614 
293 1 58.71 -0.826823 7.30534 4.20937 2.72064 -0.980865 -1.01797 
275 1 58.71 3.34992 4.64798 3.01039 -4.69633 11.18 -9.03198 
372 1 58.71 4.86357 6.52303 0.948535 6.21212 -10.0529 -4.41905 
393 1 58.71 3.3387 6.71474 3.08952 14.2187 -3.77262 -0.793857 
375 1 58.71 5.87969 5.0984 2.11488 9.76929 2.00644 4.70521 
390 1 58.71 7.55161 8.85521 -0.455168 -9.78701 -7.46021 -0.0135302 
472 1 58.71 7.87311 4.79606 2.75065 -1.31348 0.182178 -1.39244 
493 1 58.71 7.76454 7.09302 2.81197 7.3978 2.48085 3.34169 
93 1 58.71 11.0998 8.67998 2.85393 5.79067 1.55601 4.74833 
475 1 58.71 9.87092 6.24493 3.08617 -6.05888 -5.92246 1.0042 
490 1 58.71 9.56168 7.55033 0.991385 2.36136 0.0299491 13.2573 
95 1 58.71 -5.76766 9.81451 3.34 -2.97264 6.84099 0.65058 
192 1 58.71 -4.00671 9.37097 1.33882 -6.78112 4.55185 0.886373 
195 1 58.71 -2.14864 9.2798 3.4248 -5.92773 3.02222 5.93735 
295 1 58.71 0.879185 9.37921 3.91297 -2.91807 -3.32007 5.72341 
313 1 58.71 5.41888 9.56704 4.93064 5.00996 -11.1293 6.78643 
310 1 58.71 7.5544 -6.8014 3.69226 3.27182 -2.26691 -4.68356 
395 1 58.71 5.30268 7.6064 2.96291 -11.7925 -7.86408 4.10219 
410 1 58.71 9.41735 -6.60339 1.69446 3.45845 3.4471 0.0415558 
92 1 58.71 -7.55781 9.59176 0.870017 -4.03797 -3.36431 2.23483 
495 1 58.71 8.7668 9.71085 1.43635 2.23101 4.45055 -14.2697 
14 1 58.71 -5.24765 10.7938 5.37353 2.55161 5.23216 -1.566 
16 1 58.71 -7.25362 -6.17253 5.56918 -1.67026 -8.69283 -0.0858489 
19 1 58.71 -5.90162 -5.49111 7.50771 -5.39982 1.48949 10.9203 
114 1 58.71 -2.78737 11.1521 5.39814 -1.52173 6.70917 -0.0316708 
116 1 58.71 -4.4678 -5.94818 5.73749 -1.15483 3.67857 -1.95333 
117 1 58.71 -4.13234 11.0416 7.56359 -0.693626 2.51032 -2.7141 
119 1 58.71 -2.75816 -6.08811 7.82178 -5.55801 9.7706 1.5191 
216 1 58.71 -0.92302 -6.00966 5.81357 -9.86225 -2.07526 -5.8712 
217 1 58.71 -1.83916 10.4612 7.38193 -4.37246 1.14197 -4.58678 
214 1 58.71 0.685365 9.66357 6.54259 5.18938 -0.77792 -5.94746 
219 1 58.71 -0.130759 -7.08127 7.7101 -7.30294 -2.42728 -1.28669 
316 1 58.71 2.26014 -6.9579 6.16356 7.55224 1.49831 5.62899 
319 1 58.71 5.49863 -5.76976 7.60948 -7.03631 -2.44307 -3.03782 
416 1 58.71 8.43749 -5.56081 10.1284 5.60965 -5.47675 8.95094 
417 1 58.71 7.04311 8.94076 7.26051 -6.69367 8.44659 0.7582 
17 1 58.71 -7.20769 11.0858 7.37805 -2.77834 4.72153 -2.59485 
414 1 58.71 9.15324 10.1904 3.73811 3.37528 -3.36221 -3.11466 
419 1 58.71 9.5071 -6.51057 6.31352 -3.36307 2.89035 2.57136 
34 1 58.71 -6.2172 -4.00762 5.50544 -5.66562 3.51552 -1.25081 
39 1 58.71 -6.54538 -1.92529 7.05523 4.93713 -2.41191 -1.75592 
134 1 58.71 -2.45877 -4.09306 6.46732 4.08621 3.08016 -5.90814 
136 1 58.71 -4.6545 -1.68925 5.53737 0.310192 -4.06425 2.15156 
137 1 58.71 -4.55507 -3.6265 7.36387 -2.2952 8.21979 -5.62557 
139 1 58.71 -2.71629 -1.98964 7.6464 6.55716 0.330001 -0.781678 
236 1 58.71 -0.803626 -2.33963 6.28024 -5.97337 5.36412 1.05617 
237 1 58.71 0.0981934 -4.12054 7.31103 -1.45833 -6.3198 -8.38515 
239 1 58.71 1.35673 -1.80751 7.86332 -7.78475 5.72746 -9.41298 
234 1 58.71 1.19933 -4.60257 5.02722 1.6973 -8.48076 -11.4854 
336 1 58.71 3.73335 -6.27171 3.91787 5.28908 7.63555 -6.51191 
337 1 58.71 2.90866 -4.84982 6.44468 10.1949 2.44188 -7.00983 
334 1 58.71 5.91386 -2.74784 6.24288 12.7028 -7.7342 9.48429 
339 1 58.71 5.77312 -1.62481 8.03413 0.200696 2.80715 -5.45882 
436 1 58.71 8.44935 -1.97874 7.30261 5.82206 0.188249 -10.6512 
437 1 58.71 8.33594 -5.80466 8.03256 -6.05492 -16.5388 -4.34549 
36 1 58.71 10.0037 -3.28601 5.80101 10.7401 -7.05822 5.10281 
37 1 58.71 10.8307 -4.08954 7.76985 -3.94028 -5.56232 2.75359 
434 1 58.71 7.9647 -2.01822 4.95108 -8.51867 -0.459134 -1.13433 
439 1 58.71 10.3453 -1.37341 8.22146 -4.11892 11.7934 -6.76428 
54 1 58.71 -5.78768 0.523079 5.49004 1.0459 0.198927 3.79437 
154 1 58.71 -2.08939 -0.0954737 5.99568 3.5588 6.47826 -3.89477 
157 1 58.71 -4.52616 -0.151725 7.69968 3.31885 -2.59473 -5.81029 
156 1 58.71 -3.72853 1.45142 5.14857 -0.00147771 -5.17015 11.631 
257 1 58.71 -0.811488 -0.485039 7.84431 -0.272686 4.01649 2.10604 
259 1 58.71 2.59311 0.105303 7.13263 6.19121 -2.07745 -9.96639 
254 1 58.71 3.49896 -2.47355 6.5554 3.57829 0.267756 1.0585 
357 1 58.71 3.29329 -1.40377 8.85934 -10.2279 -10.5755 -1.60943 
356 1 58.71 4.21125 2.84968 4.2252 3.17582 8.53172 -7.7562 
354 1 58.71 4.22341 0.646403 5.16564 1.11552 -3.46262 4.46142 
457 1 58.71 7.86478 0.379665 7.80512 8.85591 -6.58951 -5.65679 
359 1 58.71 4.91185 0.66011 7.80738 -3.93936 2.31394 -7.81298 
456 1 58.71 8.14445 1.00007 5.15109 -4.38569 -4.08211 6.01736 
57 1 58.71 -7.22741 1.07482 8.24161 -9.30213 -11.1782 0.26367 
454 1 58.71 10.5132 -0.180827 5.78979 1.28839 2.09466 0.685346 
459 1 58.71 8.954 2.23122 8.98341 -13.31 8.42644 -5.55875 
56 1 58.71 -7.5145 2.392 5.80442 -3.09531 2.59211 1.1066 
59 1 58.71 -5.25343 2.41389 7.33196 5.42752 9.9147 -0.384026 
74 1 58.71 -5.676 3.46933 5.18818 -3.16021 1.6038 1.24072 
77 1 58.71 10.8596 3.66125 8.18995 2.65892 5.57929 -0.48133 
159 1 58.71 -2.79004 1.86394 7.23063 -2.02401 -0.880387 -1.6836 
174 1 58.71 -2.74616 4.25329 5.46637 -4.21713 -1.75643 8.18346 
177 1 58.71 -3.43108 4.46825 7.64342 -1.4049 6.10642 6.94125 
256 1 58.71 0.406376 0.350416 6.18144 -9.77038 6.22758 5.09473 
277 1 58.71 -0.823774 2.51383 5.93123 -4.39173 -0.917411 0.944428 
274 1 58.71 1.56843 4.19758 5.25979 1.72218 2.17723 -15.7473 
377 1 58.71 3.2899 3.78398 6.89131 -10.0674 -4.80434 9.62405 
374 1 58.71 6.43905 2.63531 4.24436 -4.82239 -2.21331 -4.72421 
477 1 58.71 6.54043 1.95307 6.66127 8.02918 -4.48855 5.65645 
474 1 58.71 8.88217 2.78335 6.72012 -1.75289 2.97068 -0.257128 
79 1 58.71 -6.00216 4.65279 7.68258 -11.2308 0.438922 4.4208 
94 1 58.71 -5.62032 7.63367 5.14979 -7.42374 -0.778037 1.32006 
97 1 58.71 -7.10378 7.2259 7.28181 -5.79049 -1.15133 7.62533 
176 1 58.71 -4.74988 5.65136 4.49218 -5.51683 4.19192 -7.98515 
179 1 58.71 -1.25193 4.26557 8.15327 5.72406 5.39195 9.5539 
194 1 58.71 -2.59019 6.56783 5.86428 2.83465 -10.9929 3.79763 
197 1 58.71 -4.59674 6.58018 7.51697 -3.09184 -11.6909 3.87241 
276 1 58.71 -0.729524 5.2163 6.16985 1.74478 -2.68191 -7.01717 
297 1 58.71 -1.67118 7.33866 7.6851 -9.23895 3.42475 -7.25132 
279 1 58.71 1.16201 5.45289 8.22603 3.10213 -7.05208 4.81042 
294 1 58.71 0.729455 5.99511 3.71457 0.944171 -4.8646 -4.25814 
376 1 58.71 4.25835 5.40456 4.99509 2.67647 -2.44275 -0.49449 
397 1 58.71 3.04262 7.47604 6.40988 13.5737 3.56635 5.64541 
379 1 58.71 6.31588 4.69793 6.3176 5.86562 -6.73628 -9.19048 
394 1 58.71 6.61159 6.1167 4.50564 -3.9153 -1.73912 -2.25112 
476 1 58.71 8.8154 5.44254 5.003 3.81802 0.793633 -11.0465 
497 1 58.71 8.11405 6.7998 6.7396 -3.16324 3.85587 8.60129 
76 1 58.71 10.9188 4.91184 6.345 -8.02733 4.73275 3.11398 
479 1 58.71 9.79087 6.10063 8.23993 5.27315 8.59013 3.29903 
494 1 58.71 10.8744 7.32586 5.09536 -3.2473 -3.30002 1.81 
99 1 58.71 -5.51501 9.21019 7.27665 -2.55981 -0.571902 -2.62433 
196 1 58.71 -3.92035 8.92717 4.86354 1.40143 2.13963 -4.73441 
199 1 58.71 -3.23231 8.5715 7.44102 3.97041 4.2687 -1.94976 
296 1 58.71 -1.46717 8.94779 5.71765 5.03182 4.11144 5.82636 
317 1 58.71 3.35994 10.2561 7.19333 1.19877 -1.91694 -5.44081 
299 1 58.71 0.776943 7.19444 6.35071 0.0970226 -6.39311 -0.733498 
396 1 58.71 3.11519 8.62062 4.31183 2.17264 5.34081 13.3368 
314 1 58.71 4.93075 -7.32882 5.41343 -3.08833 -2.7894 -1.84728 
399 1 58.71 5.49254 7.1582 6.00639 -9.79043 5.92269 -0.69837 
496 1 58.71 8.80987 8.24539 4.69207 3.2986 -0.888232 -5.85887 
96 1 58.71 -7.53366 10.0367 5.24456 8.47425 -2.20235 4.04398 
499 1 58.71 9.40899 9.31977 6.70429 -10.8559 -2.66558 -2.31365 
101 1 58.71 -4.01154 11.1816 -7.45138 7.28873 4.34283 -3.6919 
103 1 58.71 -2.34069 -6.01656 11.1782 -0.592892 -0.889679 0.332428 
120 1 58.71 -4.03802 -5.97791 9.67254 1.33785 6.00671 5.41672 
220 1 58.71 0.0604151 -6.59938 9.98681 4.17819 -2.10813 -1.59499 
320 1 58.71 3.62856 -4.83273 10.5645 -5.44911 -8.09254 16.8953 
318 1 58.71 7.09702 10.9183 11.003 8.43112 9.37093 12.0046 
420 1 58.71 10.9338 -5.40356 -7.37648 9.16556 -11.3266 -6.22456 
20 1 58.71 10.4647 -6.20798 9.22011 -0.127962 6.04923 4.16641 
38 1 58.71 -6.32983 -4.68324 9.96374 7.69564 1.49003 3.98051 
123 1 58.71 -2.62398 -2.53364 10.8935 4.23733 -7.1193 -1.5852 
138 1 58.71 -2.18327 -4.31672 9.23076 3.44019 0.424926 -0.30618 
140 1 58.71 -4.09694 -2.89607 9.22412 -2.11183 -11.1581 2.91146 
240 1 58.71 -0.638586 -2.32888 9.31542 7.67682 3.44694 3.96834 
223 1 58.71 1.27666 -1.14414 10.2712 -0.0298169 -7.47348 12.6049 
238 1 58.71 1.37793 -4.11895 9.14531 1.43597 3.1748 -3.7144 
340 1 58.71 5.07419 -3.47503 8.69175 10.6626 -4.00383 2.06564 
421 1 58.71 8.14554 -3.24203 10.8082 0.915113 1.90667 5.88805 
338 1 58.71 7.17608 -3.79258 7.9945 1.73323 -1.4134 -3.38439 
440 1 58.71 8.18125 -1.21535 9.71591 -0.714834 10.878 4.74733 
40 1 58.71 -6.25755 -1.00264 9.21571 -6.71939 5.58731 -10.1951 
438 1 58.71 11.0427 -3.27174 9.94524 8.12791 3.84572 3.69799 
43 1 58.71 -4.61112 1.94193 -7.47766 2.8544 4.59778 -0.737296 
58 1 58.71 -5.04062 1.28349 9.37675 -5.04845 -2.66173 -4.39686 
141 1 58.71 -4.28618 -1.01211 10.6552 -1.45963 -6.10514 2.92627 
158 1 58.71 -2.65432 0.102193 9.3819 1.19621 4.34246 -2.45731 
258 1 58.71 1.13177 0.860539 8.93743 8.97772 6.54852 -2.45007 
260 1 58.71 -0.881039 1.92584 8.49141 -5.67208 -3.21931 0.54206 
360 1 58.71 4.24166 1.86087 9.67617 8.04974 -3.40729 2.5427 
441 1 58.71 8.69872 -0.255518 -7.25505 3.7818 -7.20784 12.6221 
358 1 58.71 3.15047 0.100115 10.7169 7.77304 -8.15945 -11.5229 
460 1 58.71 6.33267 2.09057 9.58156 -2.25369 -8.60531 -10.9538 
41 1 58.71 -6.57853 0.393297 11.1248 -10.1284 4.82969 -2.27117 
443 1 58.71 9.00214 2.28186 -7.67181 4.42838 1.57072 -0.709864 
458 1 58.71 10.0107 0.239723 9.74798 2.74521 0.267436 -10.2986 
60 1 58.71 -7.55978 2.31066 10.3876 1.3173 1.62285 2.44273 
61 1 58.71 11.1465 4.04877 -6.86835 8.57759 -4.78986 8.33493 
78 1 58.71 -5.21576 3.96761 9.82939 -1.15238 -2.57668 0.518568 
160 1 58.71 -3.22023 2.63155 9.39368 0.169619 -6.63323 0.584125 
178 1 58.71 0.280752 3.85182 9.85167 -5.7259 1.02209 -8.981 
261 1 58.71 0.58858 5.7073 -7.12215 3.7647 2.73637 -3.83467 
278 1 58.71 0.889372 3.19096 7.09252 -6.75303 2.59482 -1.47131 
343 1 58.71 5.08889 0.80095 -7.07813 7.48958 3.63109 -5.88349 
378 1 58.71 5.22786 3.57062 8.10379 5.92648 2.49515 3.77594 
478 1 58.71 9.44489 4.28598 10.2446 -3.22557 3.00639 8.17128 
63 1 58.71 -6.17615 5.63942 -6.89806 -2.39983 0.462847 2.27533 
81 1 58.71 -7.33646 8.27202 -7.1511 6.17478 -1.19133 11.0452 
80 1 58.71 -7.29466 5.50781 9.80464 -4.58663 -9.51313 -1.14336 