n1.dump (written by ASE) 

382 	 atoms 
1  atom types
0.0      22.055024687722124  xlo xhi
0.0      21.927722684773769  ylo yhi
0.0      14.620009153117543  zlo zhi
    -2.0343680917961624     -8.0117654430960545      -8.753142877999105  xy xz yz


Atoms 

     1   1      10.090571794049346      8.3081079201122527    0.037639604558649974
     2   1      11.823063702253183      10.113430604886025      2.0615946045586493
     3   1      14.073003702253184      10.721200604886025     0.26496330455864997
     4   1      12.775493702253184      13.242490604886026      1.2766046045586497
     5   1      12.979783702253181      12.185260604886025      3.7287146045586494
     6   1      15.399923702253185      12.391060604886025      2.2808346045586498
     7   1      14.179373702253182      15.183720604886027      3.0125946045586498
     8   1      14.394133702253182      13.878650604886026      5.5241646045586492
     9   1      16.861073702253183      13.705910604886025      4.1547746045586491
    10   1      15.237043702253187      16.897630604886025        4.91148460455865
    11   1       -5.77586098546894      15.640190604886026      7.6523146045586499
    12   1     -3.6658109854689389      15.733400604886025      5.8660646045586491
    13   1     -2.8001528936727791       -3.53812207988774      6.7910846045586499
    14   1     -2.4826828936727781     -4.8438620798877441      9.5249846045586501
    15   1     0.32094710632722118     -4.4744720798877431      7.6476846045586502
    16   1     -1.5228428936727771     -1.9294920798877444      8.2300346045586501
    17   1     -1.1881428936727776     -2.7876920798877438       11.20155460455865
    18   1      1.3388471063272238     -2.6456920798877439      9.6537946045586498
    19   1    -0.14292289367277194    -0.31809207988774274      10.235454604558649
    20   1     0.48864710632722341      -1.674492079887743       12.88455460455865
    21   1       3.063547106327221    -0.81479207988774727      11.577754604558651
    22   1      1.5569471063272211      1.4192079201122536      12.080654604558649
    23   1      4.3340417940493463     0.66690792011225986      13.362254604558649
    24   1      3.3094237022531843      2.9856406048860253       14.05305460455865
    25   1      1.2909790145310656      5.5200906048860245       14.59275460455865
    26   1      10.999595702253185      15.132740604886026      1.7242546045586498
    27   1      13.139973702253183      16.739610604886025     0.60021160455864997
    28   1      11.591473702253184      19.143530604886024      1.2952546045586499
    29   1      12.783913702253182      17.781240604886026      3.5817346045586498
    30   1      15.256643702253182      18.198830604886027        2.32234460455865
    31   1      15.508881794049348     -1.4638920798877431        2.92117460455865
    32   1      15.865601794049351      -2.411892079887743      5.6409246045586494
    33   1      18.317281794049343     -1.7413920798877434      4.8760446045586496
    34   1       16.78115179404935     0.64720792011225736      4.7777446045586496
    35   1      17.648631794049347     -1.1099920798877418      7.2095046045586502
    36   1     -1.6242128936727789    -0.17449207988774282      6.2461846045586498
    37   1     -3.3463228936727747      2.0584079201122569      6.9037946045586498
    38   1     -2.7332928936727785      0.2631079201122537      9.3683846045586474
    39   1     -0.3458628936727795      1.5120079201122574      8.1115646045586498
    40   1     -1.5212209854689396      3.7240606048860272      8.4948846045586492
    41   1     -1.2117209854689379       2.101300604886025       11.21535460455865
    42   1      1.0631790145310576      2.9285506048860261      9.9558546045586507
    43   1    -0.72822098546893821      5.5441806048860238      10.682854604558649
    44   1      0.4061790145310627      3.4433506048860263      13.044354604558649
    45   1      2.1541790145310609      5.0160306048860255      11.531354604558651
    46   1      0.8894790145310606      7.1518306048860261       12.28905460455865
    47   1      3.9283737022531851      5.9254906048860239      13.267254604558648
    48   1       2.479213702253185      8.5846626048860255      14.106554604558649
    49   1       1.001679014531063      10.758480604886024       14.56215460455865
    50   1      12.391798294049346    -0.53729207988774341        1.51049460455865
    51   1      15.271761794049347    0.035907920112256686     0.78262660455864996
    52   1      13.608791794049347      2.5140079201122547      1.0479756045586499
    53   1      13.706651794049346     0.90050792011225134        3.56611460455865
    54   1      16.469401794049343      1.7714079201122577      2.2960546045586501
    55   1      15.545871794049349      4.4355079201122587      2.7558646045586501
    56   1      15.434051794049344      2.8519079201122595      5.1691746045586502
    57   1      18.533371794049348      3.0106079201122529      4.0843146045586485
    58   1      16.448183702253182      6.2921906048860263      5.2101746045586497
    59   1      17.058421794049348      4.1539079201122533      7.1680346045586498
    60   1     -2.3815628936727724      4.9597079201122556      6.0486246045586496
    61   1     -3.9678809854689412       7.780070604886026      6.8094946045586502
    62   1     -3.3223009854689414      5.8620206048860233      9.3623946045586504
    63   1    -0.96462098546894404      6.5874406048860266      8.1836446045586513
    64   1      -2.284250985468939      9.1132666048860269      8.6106346045586495
    65   1     -1.9732809854689397      7.8633606048860258      11.036854604558648
    66   1     0.79507901453106167      8.3886176048860257      9.3766346045586495
    67   1     -1.0284209854689392      10.530930604886024       10.29825460455865
    68   1    -0.77612098546893782      9.4024816048860256       12.95455460455865
    69   1      1.7314790145310581      10.130670604886024      11.893154604558649
    70   1     0.23747901453105824      12.363970604886026       12.24115460455865
    71   1      3.7789537022531845      11.558540604886026      12.968054604558651
    72   1      3.7737517940493461     -7.9996120798877453      13.865754604558649
    73   1      2.6396717940493439     -5.1060620798877414       14.58635460455865
    74   1      12.194233794049346      4.7301079201122533        1.77204460455865
    75   1      15.196551794049345       5.756307920112258     0.23088250455864998
    76   1      13.092676794049346      7.4948079201122573      1.5774046045586501
    77   1      13.493833702253182       6.519250604886027      3.9925046045586501
    78   1      16.004861794049344      7.2104079201122619      2.2957146045586496
    79   1      14.602293702253183      9.9379486048860244        2.98747460455865
    80   1      15.017603702253183      8.4454826048860259      5.6327746045586498
    81   1      17.004083702253183      8.7032056048860262      4.0115746045586498
    82   1      15.628363702253182      11.541930604886025      5.2556846045586498
    83   1      16.568173702253183      9.7979316048860259      7.3384346045586497
    84   1     -2.7844009854689382      10.499220604886025      6.1884446045586499
    85   1     -4.6931609854689409      13.335960604886026      6.6784246045586491
    86   1     -4.0612209854689389      11.266380604886026        8.76668460455865
    87   1     -1.0109209854689445      12.010090604886026       8.023794604558649
    88   1     -2.6046809854689403      14.524630604886026      8.0120946045586496
    89   1      -2.602920985468939      12.880360604886025       10.28295460455865
    90   1  -0.0056209854689391161      14.076750604886024      9.8362546045586488
    91   1     0.25409710632722599     -5.4243120798877404       10.11535460455865
    92   1     0.81294710632722267     -7.0736420798877457      12.661654604558651
    93   1      3.1704471063272246     -6.0170320798877457       11.74575460455865
    94   1      1.9067471063272261     -3.9475920798877402       12.24275460455865
    95   1      5.1751317940493458     -5.0539820798877431       13.19015460455865
    96   1      3.6336317940493452     -2.3918920798877426      13.893354604558651
    97   1       7.888593702253182     0.13264060488602661       14.55695460455865
    98   1      17.505603702253183      10.171790604886024      1.7541346045586497
    99   1      19.627823702253185      11.100510604886026     0.16817160455864993
   100   1      18.020953702253184      13.679430604886026      1.3127646045586501
   101   1      18.304213702253186      11.542650604886026      3.8772846045586498
   102   1     -1.5837209854689405      12.375920604886026        2.44545460455865
   103   1     -2.3411609854689375      15.189490604886023      3.6097746045586501
   104   1     -1.6557209854689376      13.389990604886025      5.8608446045586486
   105   1     0.52177901453105879      14.536290604886025      3.7668546045586502
   106   1    -0.93172098546894544      16.976620604886026      5.1274746045586497
   107   1     0.10867901453105661      14.808140604886029      7.0092446045586501
   108   1      2.4188790145310581      16.033380604886027      6.0913046045586494
   109   1      2.7960471063272232     -3.3631020798877449      6.4609146045586501
   110   1       2.905347106327218     -4.9224620798877448      9.1299646045586478
   111   1      5.5453471063272213     -3.8794320798877426      7.8656146045586501
   112   1       3.937947106327226     -2.1456920798877466        9.09241460455865
   113   1       4.501791794049347     -3.3876820798877443      11.523654604558651
   114   1      7.1370217940493488     -2.6994920798877446      9.9740046045586492
   115   1      5.4187917940493495    -0.16359207988774294       10.40745460455865
   116   1      5.9965817940493462     -1.3874920798877444      12.563854604558649
   117   1      8.4608817940493459    -0.75639207988774126      11.331654604558651
   118   1       7.153693702253185      1.4350506048860259      12.374954604558649
   119   1      9.9238877022531824      1.0153506048860264      13.263054604558651
   120   1      8.2591837022531838      3.2082406048860248       14.37825460455865
   121   1      15.209613702253181      14.684350604886026     0.26900220455864993
   122   1      16.780443702253184      15.989010604886028      2.2671446045586499
   123   1      18.956043702253183      16.442090604886026     0.53128960455864993
   124   1      17.837893702253183      18.963030604886026        1.25184460455865
   125   1      17.783863702253186      17.708600604886026        3.91019460455865
   126   1       -1.84843098546894      17.779840604886026      2.3063146045586498
   127   1     -1.0389128936727781     -1.5003920798877459      3.3880446045586501
   128   1    -0.18929289367277621     -2.3771920798877404      5.5091446045586503
   129   1      2.3194471063272273     -2.0542920798877478      3.9309546045586496
   130   1     0.68574710632722136     0.67900792011225641      5.1804746045586496
   131   1      1.1049471063272225    -0.90159207988774104      7.5369246045586502
   132   1      3.4951471063272197    -0.45359207988774258      6.6912246045586503
   133   1      2.2552471063272215      2.0040079201122585      6.9251346045586502
   134   1      2.7810471063272213     0.66170792011225943      9.4098646045586491
   135   1      5.1744471063272206      1.5217079201122554      8.3524946045586503
   136   1      3.3570790145310596      3.6703106048860263      8.7985146045586493
   137   1      4.1584537022531833       2.596250604886027      11.232254604558648
   138   1      6.3499637022531834      3.0532706048860252      10.073434604558649
   139   1      4.9134137022531856       5.644300604886026       10.46695460455865
   140   1      5.8983237022531849      4.1714506048860258      12.873554604558649
   141   1      8.4094137022531843       4.620350604886025      11.574554604558649
   142   1      6.6014237022531841      6.8172206048860255      12.685854604558648
   143   1      9.3593637022531837      6.4130106048860229      13.232554604558651
   144   1      7.8744037022531845      8.6144976048860276       14.34165460455865
   145   1       6.326113702253183      10.976570604886026      14.572354604558649
   146   1      18.075521794049347    -0.87109207988774517        1.88017460455865
   147   1       20.88270179404935     0.34150792011225789     0.62582260455864991
   148   1      19.332341794049348      2.4619079201122585      1.3366746045586499
   149   1      19.412671794049345     0.68080792011225622        3.61152460455865
   150   1  -0.0099628936727778564      1.9273079201122569      2.9179546045586502
   151   1     -1.5015228936727778      4.4706079201122533        2.86165460455865
   152   1     -1.2677328936727779      2.7706079201122549      5.4127446045586503
   153   1      1.7311471063272261      2.9604079201122548      4.6624546045586497
   154   1    0.078327106327228169      5.5825079201122554      4.7907746045586501
   155   1     0.84864710632722518      4.2913079201122581      7.4250346045586513
   156   1      2.7895790145310584      5.4595606048860255      6.0749946045586487
   157   1      1.4926790145310582      7.7332006048860258        6.39705460455865
   158   1       2.301079014531064      6.2994106048860248      8.6681346045586505
   159   1      5.0361790145310588      6.9100906048860251      7.5505546045586494
   160   1      3.2237790145310634      8.9871445048860252      8.8241446045586507
   161   1      3.3745790145310601      7.7138906048860267      11.149454604558649
   162   1      6.1112537022531859      8.4390736048860262      9.9313446045586478
   163   1      4.5408637022531844      11.004920604886026      10.355754604558649
   164   1      5.0265737022531853      9.0198560048860266       12.81575460455865
   165   1      7.1837137022531863      10.341070604886028      11.898754604558649
   166   1       6.547083702253186      12.853960604886028      12.224854604558649
   167   1      9.2391437022531839      11.460660604886026       13.28615460455865
   168   1      9.7869317940493463      -8.292082079887745      14.504554604558649
   169   1      8.2437717940493442     -5.6124120798877444       14.33425460455865
   170   1      17.859541794049349      4.9470079201122514        1.49530460455865
   171   1      12.529369794049346     -2.8368920798877428      14.392554604558649
   172   1      18.591831794049344       7.696907920112257      1.0497866045586499
   173   1      18.987533702253184      6.5960106048860272      3.6447646045586497
   174   1    -0.44443289367277772      6.9535079201122603      2.0806646045586499
   175   1     -2.0387409854689391       9.448483604886027      3.0714646045586496
   176   1     -1.2278209854689381       8.097508604886027      5.4588646045586495
   177   1     0.72107901453105883      8.8838569048860254      4.1189146045586504
   178   1    -0.57572098546894024      11.361100604886026      4.6437646045586503
   179   1   -0.032020985468937758      9.7018256048860252      6.9087346045586502
   180   1      2.8499790145310584      9.8252986048860258      5.8218046045586496
   181   1      1.5681790145310615      12.269250604886023      6.5744346045586504
   182   1       1.938079014531058      11.550030604886027      9.2633146045586496
   183   1      4.3382790145310581      12.181160604886028       7.667024604558649
   184   1      2.4337790145310634      14.471360604886028      8.2401146045586504
   185   1      2.4315790145310587      13.475900604886027       11.02235460455865
   186   1      5.1866237022531863      14.028470604886026      9.9342446045586499
   187   1      5.8083117940493461     -5.3125120798877434      10.211854604558649
   188   1      6.4618717940493493     -7.4660720798877422      13.098154604558649
   189   1      9.1997817940493487     -6.6229220798877444      11.856454604558648
   190   1      7.5815817940493471     -4.1293820798877467      12.227354604558649
   191   1      10.605231794049347     -4.9096520798877403      13.358154604558649
   192   1       9.388031794049347     -2.2071920798877462       13.48225460455865
   193   1      12.749372794049343    -0.14309207988774106      14.521454604558651
   194   1     0.19447901453106506      10.658120604886024      1.5060346045586497
   195   1      2.8171790145310576      10.739350604886026     0.64035760455864998
   196   1      1.8984790145310577      13.739470604886026      1.1766326045586499
   197   1      1.9203790145310564      11.817570604886024      3.5920646045586495
   198   1      4.3067790145310578      12.659200604886026        2.06428460455865
   199   1      3.4353790145310565      15.053640604886027        3.09905460455865
   200   1      3.6504790145310606      13.502980604886028      5.2959546045586503
   201   1      6.2207790145310673      14.582890604886027      3.9687046045586496
   202   1      4.7802790145310583      17.088350604886024      5.1196146045586497
   203   1      5.0716790145310604      15.315890604886023      7.1869546045586503
   204   1      7.3097537022531851      16.386870604886028      6.3620246045586502
   205   1      8.1397617940493472      -3.457562079887742      7.1734246045586492
   206   1      8.5294617940493467     -5.0888520798877455      9.3702846045586501
   207   1      11.182911794049344     -4.3799620798877452      7.9203546045586499
   208   1      9.6012017940493486     -1.2488920798877481      8.4215946045586474
   209   1      10.254301794049351     -3.3060620798877469       10.78845460455865
   210   1       12.30545629404935     -2.3387920798877442      9.3982846045586488
   211   1      10.958291794049348    0.016007920112257563       10.29365460455865
   212   1      11.777551794049346     -1.6379920798877474      12.127854604558649
   213   1      14.292351794049349    -0.65069207988774702       11.10075460455865
   214   1      12.504867794049346      1.3570079201122565       12.15035460455865
   215   1     -6.6718928936727764     0.42350792011225574       13.06125460455865
   216   1     -7.6284709854689403      3.1022306048860262      13.668454604558649
   217   1     -1.4060209854689398      14.435790604886027     0.42056160455864994
   218   1     0.30047901453106318      16.359390604886027      1.7334246045586499
   219   1      2.8715790145310609      16.553300604886026     0.59279660455864991
   220   1      1.2886790145310629      18.861840604886027      1.0546126045586499
   221   1      1.5573790145310566      17.358910604886027      3.9249446045586494
   222   1      4.2623790145310556      17.933680604886028      2.4480046045586499
   223   1      4.7248471063272239     -1.3087920798877426      2.9029746045586498
   224   1      5.1555471063272247      -2.579892079887744      5.1136146045586504
   225   1      7.9243471063272128     -1.9809920798877414      4.7634946045586499
   226   1      5.9903471063272216     0.35640792011225603      4.9989346045586496
   227   1      6.3604471063272259     -1.1094920798877457      7.4697146045586509
   228   1      8.8820617940493438     0.07490792011225432      5.9421346045586496
   229   1      7.3133417940493457      2.2016079201122545      6.6228846045586502
   230   1      7.8235717940493483      0.8134079201122546        9.19259460455865
   231   1      10.815091794049346      1.6935079201122567      7.6851446045586487
   232   1      8.7033217940493444      3.5617079201122559      8.6204446045586494
   233   1      9.3457697022531878      2.3075106048860259       10.98145460455865
   234   1      11.775973702253184      2.7712206048860257       10.23265460455865
   235   1      10.425374702253185      5.6012106048860248      10.247054604558651
   236   1      10.809386702253185      4.2080806048860264       13.11775460455865
   237   1      13.573613702253184      4.7056906048860272      11.808954604558648
   238   1      12.089213702253186      6.7151106048860258      12.391854604558651
   239   1     -6.9349809854689415      6.3025806048860273      13.698454604558648
   240   1     -8.2260409854689378      8.5561246048860244       13.57965460455865
   241   1      12.282903702253186      10.931840604886025      14.099154604558649
   242   1      1.2917471063272261    -0.86729207988774148        1.93450460455865
   243   1      3.8916471063272216    -0.17269207988774896     0.31501660455864999
   244   1      2.3839471063272213      2.0092079201122552        1.63054460455865
   245   1      3.2481471063272234     0.84950792011226051      3.9520946045586496
   246   1      5.7406471063272209      1.7340079201122531      2.3435746045586496
   247   1      4.0201471063272249      3.8158079201122583      3.0670146045586497
   248   1      4.4340471063272204      3.1671079201122585      5.4978746045586497
   249   1      7.1967471063272281      3.2165079201122579      3.9578646045586501
   250   1       5.986547106327226      5.6084079201122572      4.6514846045586502
   251   1      5.8206790145310627      4.4790106048860254      7.2529946045586486
   252   1      8.3219917940493442      5.0028079201122511      6.1483446045586501
   253   1      7.6718037022531824      7.5262406048860262      6.5010546045586501
   254   1      7.3341837022531848      6.2377306048860266      9.0237346045586495
   255   1      9.5955267022531849      7.1216206048860267        8.28634460455865
   256   1       8.276813702253186      9.9881106048860246      8.7530946045586493
   257   1      8.4503137022531867       8.077968604886026      10.916054604558649
   258   1      11.692823702253184      8.2502336048860219      9.9871946045586508
   259   1      9.9937837022531859      10.560550604886027       10.45695460455865
   260   1      10.264690002253182      9.1072896048860237       12.91495460455865
   261   1      12.802623702253186      10.207490604886024      11.392654604558649
   262   1      11.539123702253184      12.634040604886026       12.04145460455865
   263   1     -7.1301509854689371      11.254830604886024       12.98875460455865
   264   1     -7.0182328936727787     -7.8526720798877445      14.089754604558648
   265   1      21.570771794049342      3.4044079201122557     0.12853200455864996
   266   1      1.2149471063272246       4.533207920112253      1.8180646045586499
   267   1      3.2340471063272278      5.8618079201122564      0.4763676045586499
   268   1      1.4632790145310599      8.3989086048860262      1.3085946045586498
   269   1      2.1590790145310605      6.7568606048860271      3.5953046045586499
   270   1      4.7020471063272273      6.9227079201122583      2.4628246045586502
   271   1      3.2281790145310563      9.6863096048860271      3.2411546045586501
   272   1       4.253679014531059      7.9526306048860258      5.1723746045586498
   273   1      6.4859790145310621      8.7069506048860248      4.3322846045586498
   274   1      5.1316790145310573      11.438640604886025      4.6585946045586502
   275   1      5.4026790145310635      9.8653656048860263      7.4692846045586503
   276   1      7.6054937022531837      10.511540604886024      5.9460446045586499
   277   1       6.572283702253185      13.326780604886025      6.2236246045586494
   278   1      6.9169437022531826      12.099480604886024      9.0743346045586506
   279   1      9.4881647022531865      12.081300604886025      7.7218746045586508
   280   1      7.8717537022531845      14.422730604886029      8.6122646045586499
   281   1      8.9201437022531849      13.199620604886025       11.10105460455865
   282   1      11.459553702253183      14.014800604886025      9.3811346045586497
   283   1      11.834196794049346     -5.6041020798877481      10.634954604558651
   284   1      12.041853794049345     -7.1845920798877412       13.04745460455865
   285   1      14.347311794049345     -6.7017620798877457      11.509254604558651
   286   1      13.223586794049348     -4.0448620798877437       12.29375460455865
   287   1     -5.9771528936727796     -4.9603420798877442      13.533154604558648
   288   1     -7.2035028936727779      -2.049392079887749      13.675154604558649
   289   1      4.5622790145310566      8.8533916048860259     0.37316060455864997
   290   1      6.0598790145310639      10.328850604886025      2.3667846045586498
   291   1      8.4448790145310557      10.757960604886026     0.86616660455865002
   292   1      7.1973790145310614      13.234380604886027      1.2929346045586501
   293   1      7.8052937022531852      12.385980604886024      3.8305046045586502
   294   1      10.045753702253185      12.484690604886024      2.4233646045586501
   295   1      8.6989437022531835      15.055430604886027      3.2390046045586498
   296   1      8.9035737022531833      14.218740604886028      5.8272646045586489
   297   1      11.633333702253184      14.360100604886027      4.1881946045586496
   298   1      10.110338702253184      16.695130604886028      4.9075546045586496
   299   1      10.355273902253183      15.471210604886025      7.7349846045586492
   300   1      12.533433702253184      15.869960604886025      5.9761746045586497
   301   1      13.472171794049348     -3.2347020798877439      6.8205046045586499
   302   1      14.273571794049348     -4.8087320798877435      9.3516846045586508
   303   1      16.651891794049348     -4.0732620798877468      7.7766046045586501
   304   1       14.84248179404935     -2.0966920798877489      9.0039746045586497
   305   1     -6.3733028936727765      -3.370042079887746      11.247454604558648
   306   1     -4.2105128936727754     -2.4145920798877425      9.7457246045586494
   307   1     -5.5360128936727797     0.42800792011225741      10.170184604558649
   308   1     -4.7567028936727764      -1.646192079887743       12.61865460455865
   309   1     -2.4381628936727768    -0.70339207988774044      11.955754604558649
   310   1     -3.9214009854689427      1.3908306048860251       12.36705460455865
   311   1    -0.69642098546894293     0.73234060488602615      13.698254604558649
   312   1     -2.3867609854689351      2.8023006048860259       13.93095460455865
   313   1     -3.6165809854689401      5.3664506048860252       14.58745460455865
   314   1       5.742779014531064      15.841720604886024      1.5478546045586499
   315   1      8.1684790145310586      16.609300604886027     0.50415660455864997
   316   1      6.4159790145310653      18.838040604886025      1.1142386045586501
   317   1      6.9988790145310613      17.253870604886021        3.51974460455865
   318   1      9.6849377022531833      18.011960604886028      2.5737146045586501
   319   1      10.424771794049349     -1.1207920798877453      3.1544146045586499
   320   1      10.389901794049345     -3.0804420798877468      5.2474846045586494
   321   1      13.019675794049347     -2.0021920798877457      4.2860446045586498
   322   1      11.477388794049347     0.71640792011225995      4.8880746045586498
   323   1      11.712981794049345    -0.96149207988773977      6.7830646045586498
   324   1      14.267261794049347    -0.17249207988773985      6.5194946045586502
   325   1      13.161599794049344      2.3328079201122573      6.7580446045586502
   326   1      13.332241794049345     0.70760792011225804      9.1303546045586508
   327   1      16.033761794049344      1.7775079201122537      7.8991746045586497
   328   1      14.240953702253185      3.7440506048860267      8.5657146045586501
   329   1      14.736641794049346      2.2142079201122549      10.883854604558648
   330   1     -4.3038609854689387       3.245690604886025      9.7145646045586496
   331   1     -5.9345709854689428      5.1980806048860257      10.214854604558647
   332   1     -5.0870609854689439      3.6648506048860274      12.786454604558648
   333   1     -2.9339509854689387      4.3994106048860244       11.59725460455865
   334   1     -4.3716609854689379       6.576850604886026       12.10345460455865
   335   1     -1.3495209854689434      6.1151806048860271      13.380254604558647
   336   1     -3.2135509854689421      8.3310356048860275      13.629654604558651
   337   1      -4.488150985468943      10.819690604886027       14.19535460455865
   338   1      4.9900790145310632      20.973130604886027      1.4801446045586499
   339   1      9.4074471063272167     0.29890792011225459     0.54262660455864997
   340   1      8.2046471063272239      2.6242079201122555      1.0211006045586499
   341   1      8.3012471063272208     0.67150792011225324      3.4896846045586498
   342   1      10.543331794049347      1.7612079201122584        2.37183460455865
   343   1      9.4699817940493443      4.2998079201122579      2.8702846045586501
   344   1      9.6408917940493453      2.7418079201122572      5.1895346045586503
   345   1      12.506885794049348       3.513707920112255      4.0173546045586495
   346   1      10.975766702253184      5.7895606048860255      5.0265746045586503
   347   1      10.959627702253185      4.3187406048860257        7.55410460455865
   348   1      14.061723702253182      5.0938506048860255      6.3521046045586491
   349   1      12.352743702253186      7.5634806048860259      6.6586546045586497
   350   1      12.878273702253185      5.8959306048860229      9.0432746045586505
   351   1      15.192993702253183      6.8545006048860264      7.9393246045586494
   352   1      14.092873702253183      9.4598846048860246      8.5433746045586503
   353   1      14.474003702253185      7.4249906048860268       10.70175460455865
   354   1     -5.0409709854689382      8.0493576048860263      9.7087646045586489
   355   1     -6.3038709854689392      10.680320604886026      10.377654604558648
   356   1      -5.803810985468937      9.0386712048860254      12.505554604558649
   357   1     -3.4376409854689434      10.054250604886025       11.51345460455865
   358   1      -4.963140985468943      12.552420604886025       12.10335460455865