n1.dump (written by ASE) 

500 	 atoms 
1  atom types
0.0      18.856179999999998  xlo xhi
0.0                18.86225  ylo yhi
0.0                19.01117  zlo zhi


Atoms 

     1   1      13.188359999999998                12.79444                12.42966
     2   1      15.237859999999998                13.19337                13.54405
     3   1      17.909007999999996                 10.3193      11.303300000000002
     4   1      18.753169999999997      12.504729999999999      12.563299999999998
     5   1      1.6127100000000003      13.553529999999999      11.323219999999997
     6   1      2.0687500000000001      10.985799999999998      14.816929999999999
     7   1      4.4764400000000002                11.35765                 10.4847
     8   1      5.8509000000000002      13.398159999999999      9.8706900000000015
     9   1      6.8055199999999996                13.63584      11.948139999999999
    10   1      11.311299999999999      13.180949999999999      13.845889999999999
    11   1      8.9512999999999998                12.67882                12.72292
    12   1      14.014989999999997      15.188330000000001      13.612329999999998
    13   1      13.051839999999997      17.278789999999997                 12.4923
    14   1                 10.9137      16.783850000000001      14.096260000000001
    15   1      14.348369999999997                14.71346      11.339400000000001
    16   1      16.697589999999998                14.98888      13.041669999999998
    17   1      15.651799999999998      17.185779999999998                 13.1821
    18   1      18.313884999999999      14.497229999999998      11.259599999999999
    19   1      18.335793999999996                16.81202                12.21734
    20   1                0.134322                14.80265      13.549480000000001
    21   1      1.8444300000000002                 15.8758      11.538949999999998
    22   1                 1.45695                17.77975      15.043710000000001
    23   1                 4.93689      15.072710000000001                12.67488
    24   1      3.9925600000000001      16.604710000000001                 10.9368
    25   1      8.1066599999999998      16.538589999999999      12.664399999999999
    26   1      12.126999999999997      15.102309999999999                12.62251
    27   1      9.4473599999999998                14.76817      13.017549999999998
    28   1      10.565700000000001      17.355409999999999      11.640420000000001
    29   1      13.786979999999998     0.21335399999999996      13.225769999999999
    30   1                16.28773                0.247366      11.916079999999999
    31   1      15.563189999999999      1.6324699999999999                13.48817
    32   1               18.223388                 0.52637      10.844700000000001
    33   1                 1.10016     0.13850000000000001      12.604789999999999
    34   1      2.9640100000000005      17.388480000000001      13.054129999999999
    35   1                 1.50847      2.0928399999999998                11.28434
    36   1      5.7405400000000002               18.143338                 10.0174
    37   1      10.009499999999999     0.28222700000000001                13.46735
    38   1      11.975369999999996                 1.84996                12.67878
    39   1                13.33142      3.5872099999999998                13.42351
    40   1      17.459799999999998      2.5461399999999994      11.704889999999997
    41   1      15.008869999999998      4.2705299999999999      12.266549999999999
    42   1      17.462109999999999      4.0185899999999997                13.43178
    43   1               18.419432                 1.92415      13.600070000000001
    44   1                 1.17296      3.3569499999999999                13.15227
    45   1                 2.85514                 1.09351      13.431179999999999
    46   1      2.7427000000000006      4.3785800000000004      9.7197200000000006
    47   1      3.8385400000000001      4.7126999999999999                14.75132
    48   1      5.8761700000000001      2.9883999999999999      12.402979999999999
    49   1      6.8156600000000012      4.7945499999999992                11.77801
    50   1      10.107900000000001      2.5989399999999998                13.93599
    51   1      11.315649999999998      5.5555399999999988      13.862119999999999
    52   1      12.754179999999998      7.5959899999999987      13.507690000000002
    53   1      14.872249999999998      6.5067899999999987                13.23385
    54   1                 16.9072      7.6019399999999999                13.52618
    55   1    0.072376399999999994      5.9978300000000004      14.276770000000001
    56   1      2.1214900000000001      8.7510700000000003                12.54707
    57   1                 2.98773      5.3686600000000002      11.610799999999999
    58   1      7.0787500000000003      7.1437299999999997      12.054179999999999
    59   1      8.0713100000000004       6.439589999999999      9.9216899999999999
    60   1      8.7072400000000005      6.3358899999999991                13.91572
    61   1      13.313819999999996      11.032999999999999                14.09521
    62   1      13.514919999999998                 9.39621      11.807410000000001
    63   1      16.494999999999997                 11.1523      12.937959999999999
    64   1      14.925079999999999      9.0714100000000002                13.66089
    65   1     0.41069499999999998                 10.5596      13.298959999999999
    66   1      4.4055499999999999      9.0130700000000008      12.796339999999999
    67   1      3.8481400000000003      12.472829999999998                13.78206
    68   1      6.2742599999999999      8.6722199999999994                 11.0166
    69   1      6.5810500000000012      8.5351999999999997      14.130240000000001
    70   1      6.1513799999999996      11.344149999999999      13.084449999999999
    71   1                11.42048      9.8090399999999995      14.050699999999999
    72   1                13.57502      13.421290000000001                 15.6121
    73   1      10.874200000000002                13.41479      17.075009999999999
    74   1      15.627119999999998      11.447279999999999                15.52054
    75   1      17.484089999999998                 13.7118                15.09571
    76   1      15.856669999999998      13.101840000000001                17.04448
    77   1               18.826708                13.46467                17.19116
    78   1     0.99101200000000012      12.946680000000001      14.936259999999999
    79   1      2.3899599999999999                14.01426    0.027570600000000004
    80   1      5.1245099999999999                14.36999                14.79782
    81   1      8.1978899999999992      14.024779999999998      17.114190000000001
    82   1      9.6443100000000008                12.76515      15.051039999999999
    83   1      13.936869999999997      15.192739999999999      16.970839999999999
    84   1      13.425499999999998                 16.8874      14.903559999999999
    85   1      15.767199999999997      15.338169999999998                15.31649
    86   1      16.895669999999999      15.291350000000001      17.563359999999999
    87   1      17.542229999999996                17.35961      15.711399999999999
    88   1      15.383779999999998      17.430699999999998                17.01943
    89   1                0.147784      15.535499999999999      16.035599999999999
    90   1     0.14272599999999999      16.630520000000001      18.022563000000002
    91   1     0.27933799999999998                0.599657      16.017969999999998
    92   1      2.0257499999999999      14.501429999999999                16.61384
    93   1      2.6223999999999998      14.505820000000002      13.585889999999999
    94   1      4.7395300000000002      17.711089999999999      18.788709999999998
    95   1      6.4684900000000001      16.316189999999999      16.441950000000002
    96   1                 3.95269                16.00966                15.98185
    97   1                 7.34504                14.47903                14.78111
    98   1      7.5903200000000002                18.69603      17.005839999999999
    99   1      11.770699999999998                14.98414      15.183210000000001
   100   1      11.684649999999998      16.626349999999999                16.78257
   101   1      9.5256100000000004      15.122020000000001      15.507579999999999
   102   1      8.7030600000000007      17.377230000000001      15.149519999999999
   103   1      11.561229999999998      18.722079999999998      15.489360000000001
   104   1      13.314349999999999      18.523886999999998      17.076589999999999
   105   1      13.562289999999997      1.7956499999999997                15.15978
   106   1      11.330059999999998      1.6321099999999997      16.907419999999998
   107   1      15.125259999999999      18.636277999999997      14.935129999999999
   108   1      17.200469999999999     0.53153799999999995                17.55367
   109   1      15.049589999999998                 1.35206                 16.9343
   110   1      17.603059999999999               18.737095      14.052389999999999
   111   1      3.0331700000000006      17.455659999999998                17.37585
   112   1      4.4810699999999999      18.128267999999998      15.066319999999999
   113   1                 1.91648                 2.43309      15.391209999999999
   114   1      5.0097699999999996      2.8937799999999996      18.087075000000002
   115   1      6.4377599999999999                17.83841                 14.8005
   116   1      7.9374800000000008     0.79290000000000005      14.078529999999999
   117   1      9.5671800000000005               18.695283               18.283414
   118   1      11.651699999999998      3.4016600000000001                15.15987
   119   1      13.496579999999998      3.9339799999999996      16.672549999999998
   120   1      17.015879999999999      1.5510299999999997                15.46968
   121   1      15.274929999999998                 3.34694      14.922549999999999
   122   1      16.591789999999996      3.7059000000000002                 17.2333
   123   1     0.71553699999999998      2.1246700000000001      17.817609999999998
   124   1      18.434144999999997      3.2837200000000002                15.91699
   125   1                 1.52162      4.8026599999999995      16.812909999999999
   126   1      3.9072200000000001      2.2232500000000002      15.616720000000001
   127   1      5.5053000000000001      1.3545799999999997      14.175569999999999
   128   1      5.8515600000000001                 3.58311      15.767169999999998
   129   1      7.4744900000000003      2.4302599999999996      17.240109999999998
   130   1      8.6276100000000007      4.0997500000000002                12.85859
   131   1      9.6835299999999993     0.82515099999999997      15.688369999999999
   132   1      9.2550100000000004                 4.64297      15.649929999999999
   133   1      13.588659999999999      5.4645000000000001      14.880939999999999
   134   1      11.533859999999997      5.6097900000000003                 16.5322
   135   1      10.988899999999999      7.9279299999999999      15.698919999999999
   136   1      13.069529999999997      7.3650099999999998      16.855520000000002
   137   1      16.674199999999999      5.6260599999999998                14.85642
   138   1      15.137789999999997      5.5151399999999997                16.97897
   139   1      15.035909999999999      7.4928499999999998                15.48161
   140   1      17.039449999999999      7.8047199999999988      16.446010000000001
   141   1      18.181160999999996      5.5914400000000004                16.76491
   142   1    0.099844200000000008      8.2777600000000007      14.692159999999999
   143   1                 2.34273      6.3474300000000001                13.78487
   144   1     0.98253000000000013      7.3316100000000004      16.811589999999999
   145   1      2.8408600000000002      6.3092100000000002      18.475795999999999
   146   1      4.8961100000000011      6.5238699999999987                13.33371
   147   1                 6.84117      5.7266299999999992      14.134910000000001
   148   1      4.0799000000000003      7.4121299999999994      16.011129999999998
   149   1      5.8252499999999996      5.2449300000000001      18.267303999999999
   150   1      7.7896300000000007      8.1080000000000005      16.060140000000001
   151   1      9.3937899999999992      6.5643399999999996      16.618510000000001
   152   1      9.7047000000000008      8.6990999999999996      17.474930000000001
   153   1      13.760969999999999                 11.6031      17.214030000000001
   154   1      13.839189999999997      9.3892900000000008      15.773709999999999
   155   1      17.814239999999998                11.26403      18.016843999999999
   156   1      16.793209999999998      9.5532900000000005      15.190430000000001
   157   1      15.771559999999999      9.6643799999999995      17.308499999999999
   158   1      18.144380999999999      11.233999999999998      15.542359999999999
   159   1      18.705470999999999      9.4957799999999999                16.97185
   160   1      1.8195399999999999      11.314310000000001                17.20506
   161   1      3.3358000000000003                13.07954      16.657509999999998
   162   1      2.9646400000000002      8.5960999999999999                14.79599
   163   1      5.3380900000000011                11.67806      17.362099999999998
   164   1      5.8407400000000003      13.952409999999999      16.965310000000002
   165   1      6.8121200000000011      12.388019999999999      15.168759999999999
   166   1      5.0624500000000001                 10.0014      15.304270000000001
   167   1                 6.53606      9.8068899999999974      16.872679999999999
   168   1      11.953279999999998                11.68378                15.79369
   169   1      9.2248099999999997                  10.657      16.114370000000001
   170   1      11.731039999999997      9.6446699999999996      16.889699999999998
   171   1      9.0640800000000006      9.0449199999999994                14.36234
   172   1                 13.6418                13.32207      18.743912999999999
   173   1      17.400849999999998      13.116770000000001     0.30406100000000008
   174   1      17.032049999999998                 10.9755      1.6875900000000001
   175   1      3.0158499999999999      12.471899999999998      1.9969500000000002
   176   1      18.233684999999998      13.046559999999999      2.7354600000000002
   177   1                 1.25048                 10.5717      1.9882000000000002
   178   1      4.7067899999999998                13.01839     0.50224999999999997
   179   1      6.5450800000000005      13.967419999999999      2.7233100000000006
   180   1      9.3825599999999998      13.798449999999999      18.739415999999999
   181   1      12.007899999999999      14.883410000000001               18.579051
   182   1      13.678849999999999      17.004179999999998      18.832626000000001
   183   1      15.328649999999998      15.012499999999999     0.23002500000000003
   184   1      16.661579999999997                17.06607   0.0014619399999999999
   185   1      16.856369999999998      15.079559999999999      2.5198100000000005
   186   1      18.832039299999998      14.835619999999999     0.90867200000000015
   187   1      2.9087100000000001                16.00996                0.739201
   188   1      18.504024999999999                16.92595      2.0241699999999998
   189   1      1.5197799999999999                14.62524      2.5634700000000006
   190   1      1.3104800000000001      12.150510000000001                 4.08284
   191   1      6.5084299999999997      16.953529999999997      2.4888700000000004
   192   1      6.7986800000000001      14.271940000000001                0.199487
   193   1      4.1528299999999998      15.040839999999999      18.173940999999999
   194   1      4.9997199999999999                 17.4605      4.5167300000000008
   195   1      9.1686800000000002      16.589009999999998      17.425380000000001
   196   1      8.5547900000000006      15.240539999999999                 3.92388
   197   1      13.152449999999998      1.4937199999999999               18.733231
   198   1      15.169479999999997     0.28200500000000001    0.035980600000000001
   199   1     0.24279300000000004                0.254332     0.28985100000000003
   200   1      18.631844999999998      1.4842599999999999      2.2356600000000002
   201   1      5.4984200000000003     0.98800299999999996                16.76173
   202   1      2.6912099999999999      3.3948200000000002      18.664245000000001
   203   1      7.1891699999999998     0.75857699999999995     0.24673900000000004
   204   1      7.3823400000000001      3.5641299999999996     0.57310700000000003
   205   1      8.4895899999999997                 1.96974      2.6061299999999998
   206   1      11.654889999999998      18.269580999999999               18.785974
   207   1      7.9949000000000003                17.56775     0.63102999999999998
   208   1      11.770089999999998      3.6083499999999997      18.478269999999998
   209   1      11.289759999999998                 1.92242      1.3042500000000001
   210   1                16.98743      2.1377899999999999     0.40795700000000007
   211   1      14.774779999999998      3.5547099999999996      18.992481999999999
   212   1      18.499102999999998      4.0109599999999999               18.765138
   213   1     0.63584700000000016      3.7800099999999994      2.3865200000000004
   214   1      4.4163100000000002      4.0095900000000002     0.70274600000000009
   215   1      9.5717500000000015                 2.03565      18.704274999999999
   216   1      5.6965000000000003      2.6690100000000001      2.1986700000000003
   217   1                   10.51      18.483422999999998      1.8583300000000003
   218   1      13.314299999999998      5.5379199999999997      18.574726000000002
   219   1                11.52997      7.6298199999999996      18.697585999999998
   220   1                16.42595      5.4101100000000004                0.112899
   221   1      14.993679999999998      7.2744299999999997      18.550160000000002
   222   1      18.426471999999997      7.1969500000000002               18.778471
   223   1      1.8972800000000003      5.4636899999999988                 1.62242
   224   1      18.211756999999999                 5.89663      1.5509500000000001
   225   1                  1.7882      7.5247200000000003     0.74036199999999996
   226   1      5.3366100000000003      9.8005999999999993      18.730157999999999
   227   1      6.9385300000000001      6.7373799999999999     0.55789200000000005
   228   1      5.9781199999999997      7.5508800000000003      17.048950000000001
   229   1      9.9227699999999999      5.5893899999999999               18.287423
   230   1      13.466079999999998      9.6880699999999997      18.480007999999998
   231   1      15.423139999999998                11.57358      18.944412799999998
   232   1      17.113659999999999      8.9509699999999999     0.11479100000000002
   233   1     0.44676500000000008      12.080909999999999     0.51434500000000005
   234   1      18.451352999999997      8.4895899999999997      2.1434500000000001
   235   1      3.7513299999999998      9.5754300000000008                 17.3535
   236   1      1.2963899999999999      9.7656100000000006      18.820364999999999
   237   1      3.5629300000000006      9.0928500000000003                 1.04921
   238   1      7.7404900000000003                11.66799      18.135574000000002
   239   1      6.7001400000000011      12.166090000000001      1.0609500000000001
   240   1                 6.24763      9.2489399999999993      1.8654900000000003
   241   1      11.997249999999998      11.695279999999999      18.568300000000001
   242   1      9.9442200000000014                  10.959               18.676517
   243   1      13.309289999999999                11.30533      1.5119600000000002
   244   1      13.128429999999998                12.96669      3.4104100000000002
   245   1      15.254029999999997                12.98793      1.8552400000000002
   246   1      14.853889999999996      10.964799999999999                 3.12703
   247   1      16.078479999999999      12.970519999999999                 4.06318
   248   1      17.985706999999998      11.112399999999999      4.2276600000000002
   249   1      3.3041299999999998                 10.3931      3.2864700000000004
   250   1      5.5740299999999996      11.426499999999999      2.9711900000000004
   251   1      4.6005200000000004                15.17733                 1.68502
   252   1                 5.67265                15.07371      4.3532700000000011
   253   1      11.532209999999999      13.233059999999998      1.3588800000000001
   254   1      10.972200000000001      11.025600000000001      2.5929400000000005
   255   1      9.9665199999999992                 13.0336      4.0921099999999999
   256   1      13.253259999999997      14.802300000000001                 1.72454
   257   1      12.633399999999996      17.091439999999999      3.7231000000000001
   258   1                14.86281                16.77562      2.1380400000000002
   259   1      14.577019999999997      15.113619999999999      3.8132300000000003
   260   1                16.60547      16.876290000000001      4.2592800000000004
   261   1      18.042725999999998      14.802329999999998      4.6550099999999999
   262   1      1.0449900000000001      16.483599999999999      3.8944700000000005
   263   1      3.5964100000000001      17.213919999999998      3.0141100000000001
   264   1      3.3648500000000001                 14.7645      4.1106199999999999
   265   1      3.3869700000000003     0.78055199999999991      2.9106900000000002
   266   1      6.5569899999999999      13.055169999999999      5.4304000000000006
   267   1      11.230889999999999                16.49962                 1.82572
   268   1                 11.3527      14.771369999999999      3.4325600000000005
   269   1      6.5278400000000003      18.462357000000001      6.1857800000000003
   270   1      13.036529999999997     0.24453599999999998                 1.53714
   271   1      10.033799999999999      17.458490000000001      3.9231200000000004
   272   1      16.651159999999997      18.603339999999999      2.4704899999999999
   273   1      14.637609999999999      18.630247999999998      3.6538700000000004
   274   1      15.322809999999997      1.8014599999999998      2.1563400000000001
   275   1      16.829939999999997      2.0955499999999998      4.0055800000000001
   276   1               18.244899     0.15007499999999999      4.2670300000000001
   277   1      1.4555800000000001               18.620134      2.4391900000000004
   278   1      2.4230499999999999               18.195217       5.019610000000001
   279   1      1.3040499999999999      2.0421200000000002      4.1482599999999996
   280   1      2.9634399999999999      1.4335599999999999      18.029154999999999
   281   1      4.6106100000000003     0.99270599999999998     0.92416299999999996
   282   1      8.3419299999999996               18.397724      2.7214500000000004
   283   1      10.579599999999999      1.4107699999999999      3.8513300000000004
   284   1      12.835509999999999      2.0251999999999999      3.4741300000000002
   285   1      12.945039999999999      3.9345499999999998      1.9314000000000002
   286   1      11.658689999999998      4.6173500000000001      3.7171400000000001
   287   1      17.076609999999999      3.6679400000000002      2.1275500000000003
   288   1      15.088839999999999      3.5531099999999998      3.3870400000000003
   289   1      18.264175999999999      4.0871599999999999      4.1698199999999996
   290   1                 1.75664      1.6993799999999999      1.2407900000000001
   291   1      6.0272899999999998     0.46985399999999994      2.9310800000000001
   292   1      9.2796800000000008      3.3949399999999996      4.3149100000000002
   293   1      9.9708799999999993      3.9943900000000001      1.6931099999999999
   294   1                11.46114      5.9330400000000001      1.2694000000000003
   295   1      12.541209999999998      6.4925899999999999                  3.1231
   296   1                13.10262      7.6517199999999992      1.2699499999999999
   297   1      14.642269999999998      5.5193099999999999      1.9604100000000002
   298   1      16.349519999999998      5.5760599999999991      3.5398900000000006
   299   1      16.312709999999999      7.2217399999999996      1.5829599999999999
   300   1      14.613019999999999      7.5975000000000001                 3.05138
   301   1      18.029357000000001      7.3053400000000002      4.2093699999999998
   302   1                 3.34992      4.6479799999999996      3.0103900000000006
   303   1      4.8635700000000011      6.5230299999999994     0.94853500000000002
   304   1      3.3386999999999998      6.7147399999999999      3.0895200000000003
   305   1      5.8796900000000001      5.0983999999999998      2.1148799999999999
   306   1      7.5516100000000002      8.8552099999999996      18.556001999999999
   307   1      7.8731099999999996      4.7960599999999998      2.7506500000000003
   308   1      7.7645400000000002      7.0930199999999992      2.8119700000000001
   309   1                 11.0998      8.6799800000000005      2.8539300000000005
   310   1      9.8709200000000017      6.2449300000000001      3.0861700000000005
   311   1      9.5616800000000008      7.5503299999999998     0.99138499999999996
   312   1      13.088519999999997      9.8145100000000003      3.3399999999999999
   313   1      14.849469999999998      9.3709699999999998      1.3388200000000001
   314   1      16.707539999999998      9.2797999999999998      3.4248000000000003
   315   1     0.87918500000000011      9.3792100000000005      3.9129700000000005
   316   1      5.4188799999999997      9.5670400000000004      4.9306400000000004
   317   1      7.5544000000000002      12.060849999999999      3.6922600000000005
   318   1      5.3026800000000005      7.6063999999999998      2.9629099999999999
   319   1      9.4173500000000008                12.25886      1.6944600000000001
   320   1      11.298369999999998       9.591759999999999     0.87001700000000004
   321   1      8.7667999999999999      9.7108500000000006                 1.43635
   322   1      13.608529999999998      10.793799999999997      5.3735300000000006
   323   1      11.602559999999997      12.689719999999999      5.5691800000000002
   324   1      12.954559999999997      13.371139999999999      7.5077100000000003
   325   1      16.068809999999999      11.152100000000001      5.3981399999999997
   326   1      14.388379999999998      12.914069999999999      5.7374900000000002
   327   1      14.723839999999997      11.041600000000001      7.5635900000000005
   328   1      16.098019999999998      12.774139999999999      7.8217800000000013
   329   1      17.933159999999997      12.852589999999999      5.8135700000000012
   330   1      17.017019999999999      10.461199999999998      7.3819299999999997
   331   1                0.685365      9.6635699999999982      6.5425899999999997
   332   1      18.725420999999997      11.780979999999998      7.7100999999999997
   333   1      2.2601399999999998      11.904350000000001      6.1635600000000004
   334   1      5.4986300000000004                13.09249      7.6094800000000005
   335   1      8.4374900000000004      13.301439999999999      10.128399999999999
   336   1      7.0431100000000013      8.9407599999999992                 7.26051
   337   1      11.648489999999999      11.085799999999999      7.3780500000000009
   338   1      9.1532400000000003      10.190399999999999      3.7381100000000003
   339   1      9.5071000000000012                12.35168      6.3135199999999996
   340   1      12.638979999999998      14.854629999999998      5.5054400000000001
   341   1      12.310799999999997      16.936959999999999      7.0552299999999999
   342   1      16.397409999999997      14.769189999999998                 6.46732
   343   1                14.20168      17.173000000000002       5.537370000000001
   344   1                14.30111      15.235749999999999      7.3638700000000004
   345   1      16.139889999999998      16.872609999999998      7.6464000000000008
   346   1      18.052553999999997                16.52262                 6.28024
   347   1    0.098193400000000014      14.741709999999999      7.3110300000000006
   348   1                 1.35673      17.054739999999999      7.8633199999999999
   349   1                 1.19933      14.259679999999999      5.0272199999999998
   350   1      3.7333500000000006      12.590540000000001      3.9178700000000002
   351   1      2.9086599999999998                14.01243                 6.44468
   352   1      5.9138600000000006      16.114409999999999      6.2428800000000004
   353   1      5.7731199999999996      17.237439999999999      8.0341299999999993
   354   1      8.4493500000000008      16.883510000000001      7.3026100000000005
   355   1      8.3359400000000008      13.057590000000001      8.0325600000000001
   356   1      10.003700000000002                15.57624      5.8010100000000007
   357   1                 10.8307      14.772709999999998      7.7698499999999999
   358   1      7.9646999999999997                16.84403       4.951080000000001
   359   1      10.345300000000002                17.48884      8.2214600000000004