ITEM: TIMESTEP
0
ITEM: NUMBER OF ATOMS
3456
ITEM: BOX BOUNDS pp pp pp
-3.2388402284252038e-01 3.8742676022842389e+01
-3.2388402284252038e-01 3.8742676022842389e+01
-3.2388402284252038e-01 3.8742676022842389e+01
ITEM: ATOMS id type mass x y z vx vy vz 
3122 1 95.94 2.08993 1.8546 1.87284 -3.16218 -1.53768 -5.26261 
3213 1 95.94 4.23718 0.0767887 3.73473 0.498628 1.10885 5.02376 
859 1 95.94 4.16844 2.89356 2.98998 1.32247 -1.36633 3.3899 
3086 1 95.94 1.12222 0.244634 4.157 -2.69741 -3.84868 -5.60369 
3448 1 95.94 6.44357 2.32981 1.11217 3.48476 -6.91841 2.48689 
474 1 95.94 7.13114 1.57945 3.41598 -1.76047 -2.41931 8.3012 
3387 1 95.94 4.98716 0.121102 1.07296 -11.6577 -7.36579 1.82476 
3076 1 95.94 9.01195 1.74094 1.57966 -4.44006 -1.43593 -1.69364 
58 1 95.94 1.21494 6.48746 1.86727 3.28084 -4.96863 1.86464 
79 1 95.94 4.21125 5.99524 2.7208 0.91785 -5.50747 -4.32376 
1417 1 95.94 1.59082 4.42721 3.38646 -6.05218 4.83347 2.03903 
909 1 95.94 2.57796 4.22979 1.08925 -1.79209 -0.718362 -0.483497 
1329 1 95.94 3.1179 6.65286 0.290519 -1.93424 6.05881 -4.3255 
864 1 95.94 8.16864 5.49682 1.73198 -4.50474 8.69213 -2.56444 
200 1 95.94 6.26123 4.16586 3.63593 -4.58232 -7.99782 1.60366 
449 1 95.94 9.02975 3.88087 3.66098 -1.23518 1.26615 0.29761 
791 1 95.94 5.47753 4.87561 0.391619 1.72257 0.448025 -0.905334 
2833 1 95.94 0.445025 9.0098 2.42923 6.93241 3.01971 5.39173 
64 1 95.94 2.42369 10.8377 3.03838 -1.79074 1.32544 -5.75778 
412 1 95.94 0.592235 10.8679 0.943177 -1.0297 -1.43873 -1.05863 
1292 1 95.94 3.33821 8.71279 1.76088 -7.92248 5.96933 -3.38972 
533 1 95.94 2.63473 8.11517 4.55565 -6.37274 -7.09499 5.97938 
2269 1 95.94 6.13331 7.61974 2.15925 -0.877813 -1.62422 -4.06104 
1042 1 95.94 5.17563 10.358 1.34108 0.495652 2.22244 -1.94976 
999 1 95.94 5.03586 9.84112 3.91989 -2.09006 -1.8817 -0.354873 
141 1 95.94 7.65871 9.46823 2.73074 -3.18622 -2.35943 -1.74773 
501 1 95.94 7.7576 9.52419 0.181841 -5.02774 2.01058 -5.43566 
348 1 95.94 5.36968 8.12421 -0.298669 11.8231 3.54587 2.73877 
416 1 95.94 3.77323 13.2906 3.87966 -2.99866 7.35298 -5.06436 
967 1 95.94 3.54367 15.1364 0.82431 -3.15608 -9.51633 4.63656 
434 1 95.94 1.58647 13.4461 1.38756 -6.08831 4.40308 1.6807 
3220 1 95.94 1.15268 14.3645 4.41542 6.71873 5.89515 4.57 
169 1 95.94 8.97455 13.0447 2.83728 2.66658 -8.82555 5.82267 
332 1 95.94 4.72054 12.9444 1.18839 -7.50396 3.25629 -6.89154 
931 1 95.94 7.70912 12.1951 0.974822 3.11234 5.37833 5.33014 
773 1 95.94 6.3637 12.5544 3.18295 1.28678 1.04566 3.57741 
1333 1 95.94 7.04613 14.8556 0.83233 11.9732 5.27059 -3.27982 
1351 1 95.94 2.28607 18.8809 3.05861 2.43583 2.82459 2.83057 
2784 1 95.94 2.68121 16.2297 2.89734 -1.25584 1.74894 6.98767 
178 1 95.94 1.39803 17.5613 1.05326 -0.111704 8.7202 1.62542 
313 1 95.94 0.188606 16.6085 3.76557 -0.325629 11.862 0.821973 
959 1 95.94 8.71835 15.4243 3.79404 0.546417 7.55264 -1.40343 
129 1 95.94 5.47117 15.3832 3.37518 4.71635 3.66757 4.42693 
972 1 95.94 4.5977 17.4508 1.74764 2.46863 -4.14366 -4.62744 
1379 1 95.94 7.32094 17.2806 2.06885 -6.37194 6.92213 5.22866 
571 1 95.94 -0.113189 -0.30436 6.33084 3.75972 -1.34418 4.47173 
564 1 95.94 1.99157 0.808831 9.11109 1.35925 -3.30604 -2.8356 
2785 1 95.94 0.274244 2.2129 7.19796 7.13586 0.400814 4.35493 
3040 1 95.94 2.71609 0.646931 6.5869 0.0200938 0.29316 9.24604 
142 1 95.94 2.69785 2.60831 4.95101 2.25472 -9.28011 2.59743 
2745 1 95.94 3.26376 2.78132 7.82688 6.6172 3.80535 2.58325 
1378 1 95.94 7.70422 0.76419 8.97408 0.398474 0.30999 1.14345 
1773 1 95.94 7.13661 -0.000801277 6.59367 6.50863 -1.48799 -8.42472 
873 1 95.94 5.14657 1.61945 5.27472 2.08842 -6.68784 1.40381 
1358 1 95.94 4.90592 0.271813 8.72353 -2.38927 -0.873132 -5.76763 
2905 1 95.94 6.36488 2.93283 7.77005 7.24339 -5.73841 -1.33768 
1295 1 95.94 8.17658 2.84997 5.76562 -3.39172 -10.1385 -3.68612 
167 1 95.94 1.68509 5.26373 5.97189 1.22532 -4.60745 2.13156 
140 1 95.94 4.20391 4.83182 5.19968 -1.68538 -0.645205 2.50478 
975 1 95.94 1.81803 6.60079 8.83286 0.243213 5.47626 0.679446 
98 1 95.94 0.539011 4.35867 8.46604 -6.03548 -1.91881 -3.46379 
3090 1 95.94 3.36025 7.16352 6.76291 -3.22847 8.6229 1.62598 
2977 1 95.94 5.62817 7.43262 5.04798 5.6013 -1.42529 5.9178 
1231 1 95.94 6.99878 5.33311 6.12968 0.420788 -0.104867 -5.50171 
956 1 95.94 8.22371 4.80222 9.0926 3.85288 -6.94539 2.21244 
44 1 95.94 4.79949 5.07701 8.27326 -5.65576 -0.045078 0.882164 
3454 1 95.94 6.93205 6.93408 7.80411 1.81623 1.64449 0.870255 
1859 1 95.94 4.43758 8.38694 8.87031 -1.43021 6.10897 5.88378 
306 1 95.94 3.47987 9.57367 6.53396 6.62124 9.43815 -1.65934 
23 1 95.94 0.64199 9.8813 5.35726 8.22099 -10.3035 -1.16461 
964 1 95.94 2.91865 11.3162 8.76424 -1.95654 -0.849376 0.332795 
3198 1 95.94 0.472248 7.57612 6.71567 5.84662 6.35312 0.852288 
1267 1 95.94 1.49697 9.53835 8.22846 -1.19322 -5.52938 -1.69849 
946 1 95.94 8.30466 7.49518 5.03924 -1.20813 2.85133 6.77556 
93 1 95.94 8.61392 9.18105 8.53182 -0.642968 7.47833 -4.68525 
26 1 95.94 9.25631 10.5044 4.99732 1.75458 8.2283 1.46814 
1467 1 95.94 6.57298 9.51856 6.42098 -7.23465 -4.15992 0.834677 
63 1 95.94 6.11135 10.7405 8.73437 -12.6372 -2.18389 -1.6862 
2749 1 95.94 0.552508 11.9351 8.65597 0.825402 -11.8015 2.43013 
2826 1 95.94 2.13634 12.2596 6.30306 3.47466 1.35466 2.66462 
554 1 95.94 1.21234 14.8215 7.38473 4.29029 3.23362 -2.32865 
33 1 95.94 3.41159 15.1176 5.78188 -2.58957 3.37836 4.67892 
889 1 95.94 4.26449 13.8715 7.7505 0.36998 3.51293 -1.6831 
2803 1 95.94 6.24109 14.3093 5.41638 -0.987695 6.80972 5.80734 
196 1 95.94 9.4097 14.5961 9.40121 -7.38885 2.89247 1.64116 
56 1 95.94 8.96946 11.9185 7.93053 4.39484 -2.84504 -1.30399 
508 1 95.94 8.22734 12.9555 5.54746 -1.94253 3.03959 7.59277 
3201 1 95.94 5.00382 12.1457 6.25984 -9.87387 4.87322 5.4637 
1787 1 95.94 8.12071 15.1996 6.93395 6.93647 5.6056 0.801965 
2805 1 95.94 6.77975 13.9035 8.44376 -2.77856 -2.19286 1.73263 
3070 1 95.94 2.08924 17.3703 5.50282 0.324063 -9.09463 -2.35366 
176 1 95.94 2.88471 16.5818 8.14603 -2.0561 -1.17025 10.5229 
1453 1 95.94 0.48443 17.7256 7.68765 -3.65933 -2.17332 -5.36211 
206 1 95.94 3.15168 19.041 7.16636 -0.0184706 -0.770819 4.97485 
70 1 95.94 5.19045 16.5268 7.07487 -1.95669 8.76811 -4.77395 
441 1 95.94 5.03769 18.4755 9.35047 0.120568 -5.42851 -0.341889 
1416 1 95.94 4.60459 17.5267 4.68515 4.96197 -1.54496 -5.88162 
3443 1 95.94 7.14739 17.3591 4.6516 5.45512 -2.886 0.638973 
1449 1 95.94 7.93099 17.8198 7.19758 4.16209 -2.5624 7.22873 
3276 1 95.94 0.693195 2.28145 12.3484 1.41971 2.16297 -3.25429 
2841 1 95.94 2.16254 1.25854 13.9391 3.58104 8.28858 -3.78634 
2107 1 95.94 3.1983 0.573518 11.2369 0.940796 3.25206 3.81217 
2860 1 95.94 4.44926 3.08897 10.464 2.74138 -7.90155 0.77756 
1819 1 95.94 1.79126 3.43427 10.3141 -3.3977 1.3712 -1.8737 
148 1 95.94 5.35983 2.49787 12.7769 -2.77856 7.03171 5.55851 
961 1 95.94 7.98453 2.71245 12.7664 4.99282 2.41775 7.69751 
979 1 95.94 6.28541 0.79215 11.3485 -6.33276 -13.5849 2.31149 
1064 1 95.94 7.52356 0.247657 14.0139 8.34822 10.5902 6.1795 
80 1 95.94 6.91659 3.45112 10.2688 9.48366 -4.80819 -0.458806 
2857 1 95.94 2.93144 4.3073 13.1142 5.34459 4.7484 -4.07727 
2393 1 95.94 1.1339 5.97098 11.4904 4.35594 -9.08952 11.9378 
2830 1 95.94 3.04812 6.91221 13.1504 -4.00781 -0.780544 -3.69772 
1232 1 95.94 3.74575 6.04416 10.9296 -1.58458 1.33643 -4.31208 
13 1 95.94 0.0575748 4.67139 13.2527 0.562463 -1.03265 2.017 
682 1 95.94 8.40344 4.97935 11.5983 -7.08284 5.88415 -5.5633 
2796 1 95.94 5.68021 5.32618 13.0597 -6.75752 -1.59209 4.4394 
1183 1 95.94 6.41803 6.32064 10.5957 3.10254 2.8067 -0.00838073 
134 1 95.94 7.91775 7.24041 13.1414 -1.10961 5.98341 -0.72368 
981 1 95.94 9.00962 7.39094 10.472 0.779635 -4.96137 -3.26134 
1041 1 95.94 2.68457 8.56895 10.724 0.986579 -1.0886 0.00638731 
578 1 95.94 3.11219 9.95145 13.0926 4.59575 6.01953 2.96677 
855 1 95.94 4.27595 10.6933 10.9857 6.17907 11.9199 -2.96805 
2006 1 95.94 1.218 10.9343 10.6623 0.590979 1.37972 -3.90366 
613 1 95.94 0.896593 8.83605 12.9347 -6.43522 3.55378 -5.90261 
144 1 95.94 -0.264014 8.06162 10.2674 -0.392028 -2.18081 0.421983 
2744 1 95.94 4.90858 8.21104 11.5755 -9.70032 -1.47682 -8.09413 
214 1 95.94 6.97857 9.37176 10.9709 4.85348 1.71342 -2.97142 
230 1 95.94 6.12353 9.64351 13.5133 -1.61136 3.54734 -1.77824 
195 1 95.94 2.60965 12.412 12.1314 3.63488 3.07188 1.41002 
1478 1 95.94 0.623453 14.1834 13.465 0.252582 0.351283 9.06587 
3261 1 95.94 4.25174 14.5501 12.4898 5.65251 -4.27435 7.26372 
231 1 95.94 1.94242 13.7998 9.98101 0.554078 -0.102853 -1.87645 
1515 1 95.94 8.33932 11.5842 12.4712 3.20002 1.85508 1.45535 
1410 1 95.94 7.88273 11.9969 10.0473 0.0770516 -3.3758 -9.64287 
920 1 95.94 7.00731 14.0694 11.2388 -2.82764 6.42887 -3.1209 
213 1 95.94 5.29484 12.1666 13.0754 6.00567 -2.55229 -2.34294 
177 1 95.94 5.09328 12.8798 9.92239 -0.270096 -2.47899 5.32967 
555 1 95.94 7.75071 14.3058 13.6502 1.4105 -0.564497 2.4119 
512 1 95.94 0.113351 16.2967 9.81323 7.82423 1.49328 -0.976667 
489 1 95.94 0.74843 18.7878 11.6794 5.31956 -0.4194 -1.98713 
2779 1 95.94 1.85705 15.5128 11.7499 -5.97556 4.2865 -2.81004 
3114 1 95.94 1.39258 16.9374 14.0117 -14.9389 -2.8477 -2.61968 
524 1 95.94 2.2003 18.1858 10.1403 -4.05212 -10.8399 11.0307 
506 1 95.94 3.42666 17.5273 12.3136 -1.66284 1.57839 0.218631 
71 1 95.94 8.50313 16.1691 12.0836 0.486708 -3.43484 1.24126 
2988 1 95.94 5.99607 16.3143 13.8236 0.49676 7.92996 -3.05597 
1340 1 95.94 7.53686 18.8157 10.5917 6.57682 6.19905 0.12042 
925 1 95.94 8.41509 18.8797 13.1631 -1.98552 18.7312 7.51515 
3132 1 95.94 4.62348 15.8721 10.0953 5.53508 7.75991 1.04975 
482 1 95.94 7.20044 16.3339 9.59418 -2.83123 -0.762491 9.29653 
644 1 95.94 1.04056 2.78168 18.1155 1.50246 -2.70034 -3.00022 
683 1 95.94 0.0975635 2.32617 15.3694 5.79203 -1.13837 0.997783 
3207 1 95.94 2.7496 1.19384 17.2223 -2.04987 -8.15874 5.33812 
1818 1 95.94 4.49418 1.68175 14.9029 8.14679 -0.286469 0.860963 
2836 1 95.94 2.25514 3.37064 15.4205 3.30571 1.89044 -8.08953 
645 1 95.94 5.26666 -0.265634 16.7854 -4.73132 3.44977 15.1147 
1863 1 95.94 9.41166 2.24669 14.8 3.72032 4.11622 -6.64407 
215 1 95.94 5.27274 2.56082 17.5667 0.187559 2.47613 1.92967 
1471 1 95.94 8.46079 3.00184 17.2266 -0.680424 0.824025 4.19858 
130 1 95.94 7.52723 0.538163 16.5503 3.95684 3.11074 -1.98903 
124 1 95.94 6.81275 2.82378 15.2346 -5.65199 4.24524 -7.9149 
381 1 95.94 -0.12733 7.12728 14.993 -0.309414 -1.39287 0.128808 
2979 1 95.94 1.38404 6.93462 17.7223 -1.1888 0.638023 -1.8918 
269 1 95.94 3.05131 4.15983 17.7677 2.20697 3.79889 1.35228 
3358 1 95.94 2.1272 6.01087 15.3549 -4.50706 0.240451 -5.99206 
3025 1 95.94 3.97991 7.00606 17.6504 -1.84993 -6.27665 -2.91444 
229 1 95.94 0.0211589 4.70082 16.1098 4.47526 -3.48001 0.427558 
205 1 95.94 6.54419 7.325 18.3544 -3.67969 4.80762 -4.73193 
694 1 95.94 4.63041 4.86532 15.146 -8.22171 0.49288 -7.44415 
118 1 95.94 8.18731 4.77922 14.9363 0.0190159 -1.33577 -0.195671 
2900 1 95.94 6.88607 7.09271 15.6901 -8.76816 8.39392 1.05975 
561 1 95.94 8.91158 6.09262 17.4786 -9.03976 3.73718 4.4663 
1285 1 95.94 6.10258 4.99208 17.4732 -6.33914 2.47083 7.24882 
382 1 95.94 4.25272 9.6268 18.2275 -0.126177 8.63149 -2.97697 
3005 1 95.94 0.168004 9.99513 18.1706 -4.26444 -7.37297 -5.93055 
469 1 95.94 2.01406 8.87935 15.8731 6.04592 -4.28334 11.6272 
636 1 95.94 4.15875 10.5935 15.3534 1.85155 -5.91277 10.8118 
2944 1 95.94 2.69766 11.3771 17.1292 10.2403 7.9911 3.91839 
265 1 95.94 1.34369 11.3852 15.0782 2.08145 -2.45181 -2.25938 
2876 1 95.94 4.7 7.78113 14.8833 -3.02856 2.1153 1.67327 
993 1 95.94 8.4998 9.47641 14.9213 -0.835355 -4.62733 -1.08188 
263 1 95.94 6.5518 9.4799 16.6844 -5.39824 -10.5624 -2.23234 
247 1 95.94 1.19132 12.9128 18.6221 -0.922679 5.49205 1.23415 
587 1 95.94 0.984812 14.4109 16.6531 -3.61326 -7.16008 -0.110651 
519 1 95.94 3.24996 12.9897 14.782 -0.273013 4.07336 2.29478 
31 1 95.94 3.69939 14.2611 17.3357 -2.64318 4.56764 6.2819 
1076 1 95.94 9.3135 13.6197 19.1809 0.408208 -0.780523 0.16982 
1593 1 95.94 8.38505 11.4409 17.5176 8.14558 -1.05448 0.871491 
651 1 95.94 5.63328 11.8061 17.4347 -0.944628 -2.58738 6.2255 
1517 1 95.94 7.38715 11.9633 15.0569 3.89036 1.97551 -1.21031 
542 1 95.94 7.25755 14.4346 17.0791 -2.3321 5.58765 -0.172143 
520 1 95.94 5.56685 14.2271 15.1922 5.11442 -4.01084 6.78382 
108 1 95.94 2.74968 18.7309 15.9715 2.89089 0.0665813 -7.0084 
104 1 95.94 3.29929 15.8533 15.1 -4.26338 -3.86963 -2.82495 
2963 1 95.94 3.67713 17.757 18.2781 -2.60272 -1.17482 -7.92901 
3191 1 95.94 0.691521 17.2749 16.5876 -0.334138 1.95368 11.9729 
3129 1 95.94 1.75815 15.8057 19.0089 2.6789 -6.3073 2.56366 
127 1 95.94 4.86686 18.5314 14.5731 0.298277 6.35383 -3.15572 
3428 1 95.94 7.38999 18.4276 18.4572 8.32328 -10.7092 -4.1567 
713 1 95.94 8.18178 16.0852 15.4085 -1.74069 -6.80428 -6.07285 
618 1 95.94 7.24974 18.4969 15.4757 0.555203 -0.756746 0.901416 
1421 1 95.94 5.74792 16.556 17.0116 -1.02876 -4.87416 -1.40142 
968 1 95.94 9.09585 16.5512 17.9284 -0.318756 -4.42402 2.82911 
647 1 95.94 2.14683 1.48582 22.0253 7.32468 -1.2595 -5.39614 
709 1 95.94 4.28013 -0.169863 22.5735 -0.462876 1.20788 3.89719 
1485 1 95.94 3.33413 2.82984 19.889 -6.45426 -3.2776 -3.91922 
603 1 95.94 1.36937 0.882091 19.7016 -2.13286 7.15167 8.17996 
2919 1 95.94 4.39414 0.443143 19.3957 -2.89029 -0.196037 4.058 
1124 1 95.94 9.41165 -0.168157 23.499 0.647632 3.95782 9.00643 
1483 1 95.94 5.36049 1.86014 21.7075 2.70275 -2.95296 5.3748 
364 1 95.94 6.60281 0.756748 23.6235 18.1061 -5.29795 -5.11244 
726 1 95.94 8.34665 2.39177 21.6345 0.466009 5.67847 -2.74404 
1156 1 95.94 8.81656 2.64401 23.8531 3.25477 -0.243411 -4.62587 
1135 1 95.94 7.17691 1.0225 19.2094 -1.66763 -2.46048 2.274 
162 1 95.94 1.22612 3.71086 21.3801 -5.36213 -0.860677 -1.26286 
1472 1 95.94 2.97516 5.97287 20.1383 -5.3702 -2.34838 -0.846183 
1100 1 95.94 3.72117 4.4319 22.4235 1.11476 4.04228 -5.71294 
1136 1 95.94 1.84332 3.71165 23.7811 4.8189 3.64425 2.78309 
812 1 95.94 4.3345 7.45015 23.2225 -2.01088 7.34621 -7.47623 
3011 1 95.94 0.813336 6.33834 21.7248 1.27834 -0.847866 -3.88141 
139 1 95.94 0.486666 5.04864 19.3788 12.5323 -8.6549 7.113 
2207 1 95.94 6.40001 3.87312 23.2669 -6.71975 -0.834041 -2.80116 
295 1 95.94 5.24024 4.23516 19.8749 7.90212 -3.2162 -4.90537 
3027 1 95.94 8.9461 7.18276 22.8376 -4.68063 -1.27218 -2.19147 
1174 1 95.94 6.05698 6.15493 21.3162 -1.31944 13.0124 -11.1946 
1090 1 95.94 8.41999 7.33165 20.1496 -3.75981 -14.9285 4.47715 
1021 1 95.94 8.12727 4.61999 19.823 2.77437 -5.51654 -0.931801 
272 1 95.94 2.51608 8.17906 22.0797 7.97817 -2.50844 -1.21515 
1057 1 95.94 1.48451 11.3222 22.6918 -0.0963618 3.3233 -1.51955 
2923 1 95.94 1.63536 8.15868 19.6107 -0.767082 -1.02069 -5.85435 
2934 1 95.94 3.55907 10.0761 22.9054 4.09112 1.47345 0.972923 
209 1 95.94 2.22897 10.6489 20.3509 0.930692 1.89719 -7.65699 
1450 1 95.94 0.18207 9.34712 21.6511 7.86011 -1.4117 10.5318 
244 1 95.94 4.83174 8.36362 20.4507 -2.47704 -7.11046 -1.47962 
1023 1 95.94 6.80144 9.45153 22.3068 -2.84292 -12.9406 1.80081 
305 1 95.94 7.17784 10.2406 19.2406 3.51017 -0.555115 0.477178 
2434 1 95.94 5.21554 11.1341 20.8887 5.17318 -1.98003 -4.25684 
371 1 95.94 4.02604 12.7998 22.9085 -6.29451 -0.86225 -3.18575 
146 1 95.94 3.82913 12.7073 19.5538 2.83723 5.61279 4.0069 
238 1 95.94 1.43252 13.5065 21.0231 -7.39973 -3.54899 -3.49072 
2637 1 95.94 1.88159 14.2473 23.8285 -0.679217 0.184967 -0.785536 
1142 1 95.94 9.23268 13.9151 21.9818 4.32192 2.63383 1.96485 
1479 1 95.94 7.91055 11.8174 21.1257 -2.00594 5.49743 11.124 
250 1 95.94 6.23521 11.945 23.5627 -2.61574 -0.631407 1.11465 
1168 1 95.94 6.09704 14.1765 21.5631 -5.03462 -11.0859 2.64894 
1113 1 95.94 5.08245 14.8571 23.8154 0.200126 -4.08067 -1.05582 
1147 1 95.94 8.69256 11.4121 23.6403 -5.84428 -7.41257 -3.33648 
180 1 95.94 6.56921 13.1358 19.3891 3.37528 -7.28205 4.6023 
1125 1 95.94 0.15336 16.4478 21.3946 -2.98948 15.9225 5.14141 
243 1 95.94 3.25228 15.7708 21.8102 -8.45612 3.23227 0.871552 
695 1 95.94 2.28609 17.9244 20.8918 -3.1438 -5.46103 -3.17088 
2444 1 95.94 1.74811 17.0284 23.7157 2.93489 -3.50817 3.44782 
3297 1 95.94 7.6663 15.709 19.8674 -2.80971 -4.49827 4.4114 
228 1 95.94 7.67842 15.9375 23.2282 -6.97342 -2.54678 7.68116 
1105 1 95.94 8.81902 18.0038 21.1189 -5.24808 -4.62307 1.92368 
329 1 95.94 5.78504 17.0964 21.8702 9.62333 -1.10855 1.0995 
627 1 95.94 4.64869 15.8931 19.7202 2.30212 3.36335 0.318876 
1994 1 95.94 4.82625 19.1071 19.6971 -5.25405 1.75174 -7.81014 
1121 1 95.94 4.0961 2.19146 24.1863 4.11896 -3.47577 -1.98727 
3362 1 95.94 2.55043 -0.114122 27.4483 -1.40725 8.7923 8.85278 
362 1 95.94 1.50653 2.23488 27.9173 3.36304 2.20613 -2.21492 
821 1 95.94 1.97828 1.34095 25.2155 2.46333 2.16738 -1.07019 
3216 1 95.94 3.89492 2.84888 26.7511 0.939827 -2.48008 -1.17822 
674 1 95.94 8.36636 0.553371 25.9107 -2.04318 5.85724 0.392063 
2198 1 95.94 6.948 3.13134 25.7548 1.99832 1.11509 4.19895 
1725 1 95.94 7.92439 1.69148 28.5646 -0.14723 0.979951 6.13273 
1096 1 95.94 5.49119 0.583707 26.9909 5.58375 7.12175 -2.66476 
286 1 95.94 1.15763 4.28027 26.0996 0.591876 3.27388 -4.10583 
2610 1 95.94 2.76238 6.11952 27.0819 -3.05748 -2.86979 -3.64334 
2931 1 95.94 1.96617 6.59434 24.4588 -6.26423 1.95231 7.76715 
2958 1 95.94 0.140395 6.7413 26.9905 -7.65986 0.922654 4.17551 
751 1 95.94 4.22596 4.87392 25.0603 -0.576694 -11.5426 -3.64684 
1077 1 95.94 0.984036 5.22768 28.8556 -0.647735 -6.46619 -3.58086 
160 1 95.94 8.91249 5.04331 24.391 -3.18136 2.2863 2.79898 
221 1 95.94 7.96437 4.44696 28.361 3.02268 3.37984 -4.23437 
1084 1 95.94 5.49454 4.65272 27.5798 8.65 0.980371 6.71253 
1101 1 95.94 5.26127 6.97269 26.3213 -1.80962 4.38761 -5.82344 
585 1 95.94 6.63 6.45288 24.2458 1.82046 -2.24518 -2.41345 
420 1 95.94 8.01262 6.3698 26.3488 -5.58175 -2.66091 3.64079 
411 1 95.94 0.259583 9.79644 27.0767 -1.42311 -6.39269 -2.68612 
2275 1 95.94 2.78983 8.50926 25.7936 3.10737 -7.33953 1.40457 
1123 1 95.94 0.749126 9.49153 24.297 -4.56178 -2.21229 3.68046 
88 1 95.94 4.44294 10.0307 27.2509 6.04921 -2.7077 -7.20718 
1289 1 95.94 2.42354 10.0138 28.808 -6.51742 -1.52548 4.65271 
1177 1 95.94 8.14062 8.94668 25.0475 -1.04459 8.73948 -0.878504 
252 1 95.94 5.52872 9.73622 25.1667 6.4885 -1.22106 -1.74321 
312 1 95.94 7.30349 11.1427 26.2935 0.0852512 -0.994605 -2.77859 
163 1 95.94 6.71681 8.88167 27.5713 -1.92159 -4.47286 -0.105839 
157 1 95.94 9.07404 10.7096 28.0445 -1.0105 2.4142 9.18151 
1244 1 95.94 1.35535 15.025 28.228 -2.32827 -1.59342 8.37198 
1695 1 95.94 4.22098 12.5128 28.6009 -8.18935 5.32869 -8.16942 
240 1 95.94 0.00701286 12.4256 25.4021 -7.21158 4.09423 2.77943 
330 1 95.94 1.16134 12.4402 27.886 -5.92133 -0.300293 8.11407 
1624 1 95.94 2.54405 11.4319 25.1543 -0.527179 1.53673 -0.718082 
1663 1 95.94 2.84864 13.9002 26.1745 2.53485 -4.35605 8.43183 
1199 1 95.94 5.35639 14.8029 27.2346 1.07261 -5.47084 3.09239 
1010 1 95.94 7.13948 13.8475 25.3011 0.624008 -7.02216 -7.54093 
2486 1 95.94 7.57808 13.6129 28.2345 4.48632 8.36529 0.984302 
294 1 95.94 4.88084 12.7709 25.415 -1.39409 -0.738699 -7.66401 
3033 1 95.94 -0.158866 18.7417 25.8721 -4.39927 -11.0315 1.39929 
261 1 95.94 0.03844 15.6763 25.638 -0.993306 3.62283 -0.209641 
248 1 95.94 1.84466 18.1312 27.9996 -0.3082 3.70696 -0.760823 
2978 1 95.94 3.09762 18.6351 25.3973 0.167196 1.61077 -3.29783 
776 1 95.94 2.78069 16.3867 26.3527 1.84791 6.19086 -7.35034 
2971 1 95.94 6.58334 16.0868 28.9135 -0.277112 -2.4985 1.46568 
621 1 95.94 4.55963 17.4785 27.717 2.05075 -3.19623 1.86193 
1070 1 95.94 7.42531 18.6925 24.1558 0.744961 -5.23182 -3.98803 
372 1 95.94 7.85088 16.3543 26.4359 -0.602031 -5.03519 5.33418 
1441 1 95.94 5.24973 17.626 24.9845 6.63902 0.185268 1.86465 
322 1 95.94 8.48797 18.0054 28.8695 7.42589 -5.29304 -1.83424 
72 1 95.94 1.19165 2.81505 30.4928 0.840893 -3.30294 -5.6604 
1133 1 95.94 3.77381 0.760815 31.8375 0.850041 1.83079 3.63551 
2117 1 95.94 0.908642 3.48566 33.4418 -0.454183 6.01504 -0.126453 
841 1 95.94 3.84162 3.42897 32.0378 6.44598 0.56657 -2.6231 
746 1 95.94 3.56791 1.82867 29.2075 -2.13864 4.11126 -8.00238 
754 1 95.94 0.732039 0.366687 32.1935 -0.169008 5.95824 -11.611 
3113 1 95.94 1.02001 -0.0683488 29.7515 5.77265 -3.82248 -5.76616 
573 1 95.94 8.42798 0.898994 30.8516 -4.84602 -12.4301 11.7713 
903 1 95.94 6.42857 2.2721 32.4533 9.94443 4.12821 0.679419 
1989 1 95.94 9.14216 1.36088 33.4114 -2.97936 1.51963 -7.56766 
327 1 95.94 5.87107 2.52251 29.7844 3.84999 -2.45188 -7.39301 
1275 1 95.94 8.52835 3.55351 31.254 5.31876 3.17648 7.71937 
156 1 95.94 5.82185 -0.305364 30.0257 -1.0317 22.4442 -1.76677 
347 1 95.94 1.53888 5.06208 31.8957 -3.5841 0.282381 1.39719 
867 1 95.94 4.02553 6.22351 31.8996 0.029199 8.27678 1.47086 
2770 1 95.94 0.259493 7.2911 30.4316 -5.98092 -6.39927 -1.67749 
224 1 95.94 3.30233 4.76514 29.491 5.84314 -0.220614 2.81782 
21 1 95.94 5.95601 4.93749 33.201 -3.0581 2.06651 9.37135 
1016 1 95.94 6.05887 4.77788 30.3228 7.29202 -2.33425 -0.567938 
2169 1 95.94 8.87023 6.03428 32.035 0.847384 4.032 0.496498 
2925 1 95.94 6.10645 7.46236 31.7141 2.12487 8.65128 3.37871 
1227 1 95.94 7.82301 6.67583 29.637 -3.61784 -1.51392 2.37906 
2080 1 95.94 5.12097 7.18254 29.2361 0.313589 1.3255 0.24692 
823 1 95.94 2.37764 7.54228 29.2974 2.7637 -17.821 0.662907 
1225 1 95.94 0.603707 10.3177 30.4533 -0.556657 5.71117 1.74332 
1751 1 95.94 2.63222 8.74698 31.8569 -11.2259 -2.46766 3.04419 
1268 1 95.94 1.34949 10.9284 32.9262 -2.77764 5.9869 -2.39851 
2911 1 95.94 3.70274 11.3177 31.3337 -10.806 9.83065 4.10828 
877 1 95.94 -0.0703137 8.43511 32.6167 -2.5367 8.28215 3.44243 
1209 1 95.94 6.52481 11.1116 29.1147 3.80978 3.13276 -3.0244 
297 1 95.94 7.07957 10.6841 31.9489 -5.85438 -8.66491 3.452 
60 1 95.94 4.59145 9.83204 33.3138 -9.86167 0.308368 -10.1394 
335 1 95.94 5.11145 9.55028 30.3067 8.90331 -3.37276 4.87101 
1109 1 95.94 7.99854 9.17477 29.8333 -1.72294 3.16944 7.50178 
1172 1 95.94 8.83281 8.18817 32.1104 -0.729662 0.914264 5.0383 
2989 1 95.94 1.22008 12.7565 30.578 2.60967 -6.18472 -0.326292 
2883 1 95.94 1.04093 13.9165 33.12 -0.309189 -2.12559 -3.80702 
417 1 95.94 3.50579 14.0838 31.4639 3.93046 1.27655 4.37669 
370 1 95.94 4.20266 15.1767 29.2996 -5.86921 -6.10784 6.60757 
2781 1 95.94 8.01059 13.4397 33.3398 -1.67063 6.74484 7.70893 
1210 1 95.94 5.41066 12.8308 33.0558 0.16308 -0.568895 -3.54453 
1648 1 95.94 8.39166 15.0582 30.9341 -7.6679 -2.82044 5.13551 
840 1 95.94 6.00742 13.2285 30.6172 -4.83319 0.690633 -2.62914 
1184 1 95.94 9.10492 11.8318 30.3982 -1.99768 3.07263 2.09718 
398 1 95.94 0.472686 17.6449 30.0892 5.24746 1.66824 7.46212 
90 1 95.94 2.16104 18.7651 32.8298 1.3882 -3.87153 -8.69263 
384 1 95.94 -0.271662 18.9585 32.4007 -2.45493 -1.70759 -2.07686 
270 1 95.94 2.14587 15.8929 30.9811 3.44563 7.90645 -6.93988 
418 1 95.94 1.45853 16.3857 33.4665 -0.982617 -7.82235 3.76592 
622 1 95.94 3.71673 18.0268 30.1745 3.09407 -4.61747 7.31909 
29 1 95.94 6.32308 15.7796 33.3288 2.71267 8.75096 6.85319 
1709 1 95.94 4.69707 16.0754 31.4297 -7.76742 0.260737 -0.15896 
1592 1 95.94 7.68985 17.4635 31.4189 6.07895 -1.48445 4.41775 
264 1 95.94 6.03054 19.1789 29.6922 -0.0756434 -3.98126 -1.40782 
657 1 95.94 5.38108 18.4133 32.1598 -2.5495 1.55863 -2.41841 
2160 1 95.94 -0.015106 1.47056 35.7484 1.44348 1.8958 2.9571 
753 1 95.94 1.95951 -0.0103886 37.4511 9.92674 -0.6033 6.87784 
257 1 95.94 4.34049 -0.0807735 36.5104 -1.40973 -6.19645 -1.40317 
3038 1 95.94 1.87966 0.405404 34.3689 3.42 10.1921 0.759638 
2171 1 95.94 2.5663 2.36556 36.0426 9.18615 -8.0701 6.51647 
1019 1 95.94 3.78877 1.51726 38.6113 9.46532 4.65253 1.33794 
1890 1 95.94 0.938412 2.51306 38.1709 7.56209 9.11926 -9.21387 
530 1 95.94 4.61627 2.35185 34.1247 1.34982 -7.40883 -6.25929 
82 1 95.94 7.03793 0.749351 35.4086 1.13553 9.64963 -0.644902 
2194 1 95.94 8.51032 1.04062 38.1043 -1.86436 -5.69314 -3.09653 
2782 1 95.94 5.44598 2.43952 37.0359 -3.08041 1.56835 4.25482 
1988 1 95.94 7.36514 3.45962 35.238 3.28649 -6.48425 2.65886 
1337 1 95.94 1.70428 6.69959 34.0127 -1.30176 -3.57712 4.84774 
41 1 95.94 0.857173 5.57736 37.8003 -1.2267 -1.95059 4.04113 
1149 1 95.94 3.26469 4.86472 34.5202 1.04518 -4.57989 7.72726 
499 1 95.94 3.34597 4.59789 37.7702 -0.238055 6.2719 -12.9143 
3072 1 95.94 0.144238 4.22279 35.8367 2.4924 0.794451 -1.58192 
255 1 95.94 2.70596 7.3979 36.4884 5.47778 -10.745 5.98665 
1195 1 95.94 4.44165 7.48728 34.2403 -1.31843 -1.88889 2.61255 
99 1 95.94 7.97909 3.81445 38.2854 7.847 -2.63194 -2.39404 
415 1 95.94 5.63996 5.99796 35.9785 -0.0832847 0.0239675 2.78335 
827 1 95.94 7.45982 6.66963 38.2422 4.05589 3.00252 0.916367 
934 1 95.94 8.1562 6.07055 35.1029 5.63162 5.50866 -2.81465 
1154 1 95.94 2.1336 9.52349 34.555 -2.8969 4.73156 -1.45287 
2761 1 95.94 0.940794 10.2488 36.9499 3.49275 6.8266 9.02223 
192 1 95.94 3.37761 9.78093 38.2822 -5.84613 4.32487 10.0789 
1363 1 95.94 1.1273 8.57149 38.6693 4.82386 -1.75209 -1.24786 
1334 1 95.94 5.90783 11.1153 37.687 -3.43649 -2.2292 2.2074 
377 1 95.94 7.29039 8.42233 34.0626 4.38309 -1.98115 -4.02517 
1681 1 95.94 4.73747 9.27177 36.2394 -5.0983 -0.920014 -3.76611 
1278 1 95.94 6.60896 10.9775 34.8391 -7.29654 -5.23035 2.64045 
905 1 95.94 7.13329 8.70471 36.3964 -2.93063 0.529583 -5.71481 
3189 1 95.94 8.58523 10.8882 37.3536 -10.0457 7.19427 -3.59974 
507 1 95.94 3.20405 12.2401 33.9606 -0.931904 -1.19066 0.660962 
350 1 95.94 3.11648 12.2027 38.5408 3.56394 -4.09605 -1.37214 
545 1 95.94 0.350131 13.0559 38.0161 -2.28175 -2.9761 0.0709346 
1327 1 95.94 2.85623 14.1453 36.3224 -7.81835 2.38392 3.68868 
1339 1 95.94 3.58758 14.8473 33.92 7.53468 -3.12865 1.51274 
3135 1 95.94 4.07804 11.6085 36.1606 -2.85741 -1.58446 -4.39767 
896 1 95.94 0.10169 14.9597 35.9986 1.9806 -7.98002 -2.81068 
3063 1 95.94 1.09594 12.2551 35.4199 4.2219 -0.962961 -1.47559 
394 1 95.94 9.08414 13.101 35.7834 -12.9774 2.43941 -3.92571 
748 1 95.94 5.07589 13.9738 38.1158 -4.87135 1.03456 0.262579 
2192 1 95.94 8.12365 13.8353 37.8884 2.96653 10.2938 -2.98284 
389 1 95.94 6.07718 13.7936 35.6273 -4.97146 2.49318 3.63955 
35 1 95.94 2.20692 16.9335 36.0405 -12.8363 -1.32554 -7.80534 
1324 1 95.94 0.441273 18.5742 34.9007 4.56403 3.41349 -1.94305 
3059 1 95.94 4.29528 17.7296 34.2315 6.00808 -1.55146 8.43304 
470 1 95.94 0.953785 15.5627 38.1147 0.463928 -1.41072 -0.853948 
437 1 95.94 3.5944 17.2916 38.5244 10.9402 -2.64926 -2.67352 
517 1 95.94 1.88037 19.1681 37.6955 -1.21787 8.0908 0.290808 
3233 1 95.94 4.72883 18.5822 36.9948 -1.71903 1.04977 -3.12779 
443 1 95.94 7.55315 17.8867 34.1058 -1.61695 -1.00249 1.53298 
3036 1 95.94 7.27626 18.4844 36.9189 -1.50121 8.04525 -4.95026 
1371 1 95.94 7.65328 15.8404 35.6787 0.489802 1.36211 -5.50225 
1335 1 95.94 5.87256 16.4461 38.4539 -2.5374 -1.28987 1.15551 
588 1 95.94 8.85587 16.6969 38.2361 -3.60716 2.33366 2.87339 
69 1 95.94 4.69705 15.9469 35.9186 -6.45718 5.3264 1.26714 
1369 1 95.94 2.64849 21.3458 2.9461 1.08934 1.03205 0.495065 
485 1 95.94 0.176032 20.7091 3.71035 -1.53515 -0.386779 -2.0148 
2765 1 95.94 3.69086 19.9267 0.581592 -11.5514 -1.37969 -3.57702 
3056 1 95.94 3.26012 22.7865 0.68272 5.74052 3.55436 -4.57468 
3111 1 95.94 0.90127 20.6547 0.711037 -2.37784 5.64297 -0.612234 
1538 1 95.94 6.21776 22.3129 0.29617 2.42599 0.239079 -3.33656 
471 1 95.94 9.19272 22.0439 1.13946 -5.65802 -2.65771 3.02822 
448 1 95.94 5.21356 22.2887 3.28016 -4.45519 -3.23765 -4.52695 
472 1 95.94 7.70834 19.9641 2.52565 1.5156 -15.6332 4.56802 
838 1 95.94 6.04867 19.3672 0.263252 10.6882 -0.211768 2.56861 
446 1 95.94 5.3506 19.6429 3.05419 4.79616 -2.89195 3.464 
1316 1 95.94 8.62363 19.7479 -0.157055 2.72517 -3.35913 -7.92884 
546 1 95.94 9.23179 21.6666 3.81033 3.98632 -5.621 3.78892 
3092 1 95.94 2.61806 25.4562 1.26955 -0.218944 1.42161 -12.5517 
831 1 95.94 2.952 24.432 3.33353 -0.381433 -0.962803 0.0645273 
429 1 95.94 0.838412 23.4678 2.37318 -6.02304 -4.60079 1.76406 
3019 1 95.94 0.0720608 26.0489 2.30667 -7.0916 -1.33522 -6.70939 
809 1 95.94 7.25244 23.2831 2.46134 0.386409 0.256452 -6.3826 
96 1 95.94 5.29718 24.5479 1.48368 1.61262 3.54801 2.25856 
445 1 95.94 7.76081 25.8788 3.27683 3.66458 -2.72448 2.65951 
1321 1 95.94 8.16776 24.6704 0.481044 -0.632101 3.57202 -0.515089 
3444 1 95.94 4.85893 26.6734 2.59154 5.18159 5.86776 -0.283978 
433 1 95.94 1.90892 27.2426 3.38151 4.18413 -7.89803 0.93034 
3169 1 95.94 3.53951 28.5192 1.14005 3.10704 4.4521 2.96631 
475 1 95.94 0.841574 27.8905 0.414998 7.45988 -3.02761 6.99608 
3119 1 95.94 1.73618 30.4028 3.07692 -9.41576 -6.01193 0.801515 
1201 1 95.94 3.75297 28.8212 4.21108 7.71768 -4.43972 -1.66978 
3411 1 95.94 1.38606 30.6781 0.612784 5.35692 -5.32831 -5.97446 
2811 1 95.94 -0.170108 27.9477 4.31763 -1.11064 0.885472 2.27457 
3392 1 95.94 7.95187 28.7828 2.79878 7.2238 7.57025 1.71634 
2798 1 95.94 6.59733 30.4265 4.11109 -0.218815 4.24733 5.06646 
1342 1 95.94 5.81384 30.0379 1.66631 -3.8662 6.31754 2.1123 
409 1 95.94 7.30441 27.0878 0.871239 -5.23285 -5.86639 9.37311 
3389 1 95.94 3.69305 31.5742 0.716386 -8.3016 -1.62729 -2.50837 
1393 1 95.94 1.62036 32.8022 1.70111 5.42826 -2.85889 -2.72328 
764 1 95.94 3.92927 33.9376 2.78956 -3.35733 -2.55087 10.4784 
535 1 95.94 4.40516 31.5368 2.95012 -2.74896 -3.81923 -1.38322 
463 1 95.94 1.20136 34.375 3.95396 -10.3051 1.28813 4.22818 
1310 1 95.94 8.27466 31.0312 1.36226 3.1259 4.845 5.30882 
2409 1 95.94 7.48516 33.2573 2.77841 0.152469 -1.81748 -7.93954 
258 1 95.94 7.63499 33.0855 -0.173713 -2.38564 4.64862 2.46224 
1658 1 95.94 4.63034 34.0935 0.124786 8.24968 -9.88085 3.01668 
3437 1 95.94 -0.0215809 37.8798 1.78277 -2.09031 0.560696 0.616408 
3439 1 95.94 2.32322 35.5743 1.4066 2.72656 2.24452 -10.4901 
2370 1 95.94 4.25195 36.7383 2.77667 4.68505 1.2277 6.61024 
488 1 95.94 -0.268327 36.7332 4.24748 1.90649 -6.81139 4.94843 
3377 1 95.94 2.4723 38.4667 1.06379 -4.02815 5.4887 4.80126 
3403 1 95.94 6.13481 36.5305 1.19775 8.06163 -5.13384 3.85412 