ITEM: TIMESTEP
5000
ITEM: NUMBER OF ATOMS
1008
ITEM: BOX BOUNDS pp pp pp
-2.4124791226389775e-02 2.8660921791226720e+01
-2.0678392479691610e-02 2.4566504392479779e+01
-2.0678392479691610e-02 2.4566504392479779e+01
ITEM: ATOMS id type mass x y z vx vy vz 
170 1 95.94 1.9779 1.97062 4.1845 4.08099 4.59095 -1.92928 
3 1 95.94 2.38319 0.160752 1.71971 5.15282 -9.26564 2.85423 
1 1 95.94 0.584126 24.3775 24.5794 -5.16539 -0.793007 1.88138 
2 1 95.94 2.17799 2.02954 24.5524 6.47947 -1.12078 2.95993 
8 1 95.94 4.6105 1.90546 2.12514 6.35485 10.1804 -3.54596 
174 1 95.94 6.42991 2.14293 4.42964 -1.68329 5.55628 -1.39898 
201 1 95.94 4.11487 4.23638 4.21414 3.78961 -2.80568 -6.74183 
6 1 95.94 6.04324 2.01592 24.0511 1.92286 0.953923 4.94092 
12 1 95.94 7.70847 2.15233 1.95035 1.97815 5.26323 11.5786 
39 1 95.94 9.87597 3.78764 2.13177 -0.400293 -6.07334 -0.310044 
178 1 95.94 10.0323 2.28379 4.06687 6.0959 -8.70921 6.85909 
10 1 95.94 9.85152 2.27159 0.187964 -7.78457 9.14305 -2.49034 
16 1 95.94 12.1535 2.10229 2.16703 -2.14574 2.97592 -4.26481 
43 1 95.94 14.022 3.84923 1.89974 -3.773 -0.0315401 4.3505 
41 1 95.94 11.846 3.96301 -0.134954 4.00587 -5.18979 -7.18507 
15 1 95.94 14.3394 0.0313814 2.17347 -1.82316 0.242354 -4.19765 
20 1 95.94 16.0943 1.97966 2.4022 0.478939 -1.21442 0.425718 
185 1 95.94 16.5462 0.199883 4.29034 -11.0164 0.347388 2.66991 
24 1 95.94 20.4981 2.19252 2.13127 -0.928232 -5.18149 -6.65841 
19 1 95.94 18.4428 0.236176 2.19149 0.836986 -5.43024 -0.227007 
186 1 95.94 18.5796 2.31389 4.38678 -7.31756 0.879427 4.92451 
18 1 95.94 18.5303 1.94572 24.3293 -4.54577 2.42256 -1.68983 
49 1 95.94 20.2898 3.84086 24.2643 -3.24606 2.95344 -1.26993 
21 1 95.94 20.5074 0.36272 0.080913 -3.18802 -3.30895 1.93847 
28 1 95.94 24.6073 2.2215 2.02432 -1.36509 -7.8617 0.0623534 
51 1 95.94 22.6268 3.77142 2.06299 5.81461 -3.62973 -10.9715 
23 1 95.94 22.6217 0.421485 1.86968 5.10446 2.35316 9.98646 
25 1 95.94 24.7042 0.129798 0.280504 2.97559 4.50574 -1.80932 
4 1 95.94 0.246531 2.03602 1.87185 -3.80509 0.845247 0.564593 
26 1 95.94 26.8487 1.89953 0.185853 -4.82819 -4.32193 1.3444 
27 1 95.94 26.7631 0.110009 2.01507 6.3101 -2.90517 6.21746 
194 1 95.94 26.4629 1.81924 3.98559 -10.2988 -1.99174 0.155819 
31 1 95.94 2.21239 3.85993 1.58044 -6.2549 -0.368627 5.72808 
30 1 95.94 2.03919 6.52947 24.1656 5.00106 1.34975 1.3606 
33 1 95.94 4.07722 4.034 24.0714 -5.44756 5.79794 -3.37522 
35 1 95.94 6.18838 4.33412 1.92313 -7.60189 -6.94428 -2.19099 
36 1 95.94 3.79875 5.86665 1.52939 7.3962 -4.54523 -2.22025 
34 1 95.94 5.81923 6.23049 24.5195 0.572262 -2.74328 4.97411 
61 1 95.94 3.85135 8.51414 0.224499 -2.19021 -0.340845 -1.2187 
37 1 95.94 7.85775 3.97897 24.402 -0.0731986 1.653 6.71844 
40 1 95.94 8.03734 6.03973 1.95247 -0.658182 2.24557 0.618015 
206 1 95.94 10.1354 6.04963 4.06613 4.65904 -3.17572 2.84052 
38 1 95.94 9.90309 5.65341 -0.113953 -7.75921 0.120609 -10.3975 
44 1 95.94 11.7178 5.71395 1.93729 3.01965 5.43135 1.35795 
69 1 95.94 11.9103 8.079 24.2079 -1.40846 1.1931 -4.20951 
48 1 95.94 16.1792 5.98249 1.72023 2.44552 0.398757 6.73733 
71 1 95.94 14.2358 8.2167 1.78362 3.47932 3.67235 -3.85015 
42 1 95.94 13.9991 6.13861 0.0776577 5.16152 -0.129691 3.09536 
47 1 95.94 18.3039 3.86705 1.97268 -0.318043 1.31397 4.33975 
52 1 95.94 20.2748 5.45456 1.7458 4.30657 4.10402 1.12537 
75 1 95.94 18.9166 7.85402 1.80399 -12.7747 5.6513 4.71648 
56 1 95.94 24.6823 6.06794 2.26161 -5.43038 -2.69281 -10.2518 
79 1 95.94 22.234 7.71511 1.94713 1.63394 1.86416 -0.210721 
32 1 95.94 0.150263 6.05802 2.00469 8.35437 -3.12011 5.98207 
55 1 95.94 26.8874 3.8466 2.16645 -1.40245 -2.58076 -3.02471 
225 1 95.94 28.5349 8.06148 4.46734 6.74777 6.1912 2.57253 
197 1 95.94 0.391011 4.1748 3.94604 -4.99482 3.59579 8.1969 
59 1 95.94 1.81301 8.3713 2.0923 -5.08994 -5.58002 -3.08005 
226 1 95.94 1.93209 10.4104 4.48916 3.86612 -4.52443 -5.83174 
57 1 95.94 28.4136 8.39643 24.3557 -2.54628 5.94002 -0.794648 
58 1 95.94 1.57623 10.3645 -0.0588776 -1.17928 -5.83837 -2.84399 
63 1 95.94 5.94086 8.1157 1.76232 -4.95986 -7.53786 2.53121 
64 1 95.94 3.95325 10.3896 2.026 -0.649748 9.19432 -5.68692 
91 1 95.94 6.07776 12.2376 2.07971 -1.76126 2.91091 4.91471 
230 1 95.94 6.14953 10.1886 3.77515 0.980545 -3.35293 3.8787 
67 1 95.94 10.0383 8.27179 1.74684 -4.4623 4.14207 -3.10628 
68 1 95.94 8.09662 10.2529 2.17867 7.14624 -1.02145 -2.62538 
234 1 95.94 10.0445 10.8774 3.55223 -1.12767 -0.306831 5.72641 
95 1 95.94 10.42 12.6554 2.07533 -18.2087 -3.13108 3.96787 
65 1 95.94 7.70574 8.1794 24.5101 -4.81515 -0.788078 -1.69168 
66 1 95.94 9.8184 10.1628 24.5058 9.09133 5.1228 7.27131 
72 1 95.94 11.9482 10.203 1.6824 -9.44431 1.55916 4.87321 
265 1 95.94 12.6155 12.2056 4.0471 4.40417 1.23581 -4.37172 
70 1 95.94 14.247 10.2653 -0.120248 -4.96479 -3.88162 -6.05316 
76 1 95.94 16.6262 10.5156 1.78757 4.0165 4.24528 -2.25616 
238 1 95.94 14.0465 10.2199 3.57577 1.5291 -3.60243 -8.37052 
80 1 95.94 20.5199 10.1823 1.70565 1.34763 -10.127 2.02525 
103 1 95.94 18.7582 12.0064 2.21642 0.709598 0.0641652 3.86931 
273 1 95.94 20.4486 11.9474 4.06737 0.296911 3.9692 1.45266 
84 1 95.94 24.5841 10.0919 2.1158 -0.940524 3.03519 0.141814 
107 1 95.94 22.1484 12.037 1.79019 3.92993 -4.18918 -0.906818 
249 1 95.94 24.7687 8.17023 3.88226 8.46462 0.682668 -3.47709 
78 1 95.94 22.7709 9.93519 24.472 -1.59254 4.6253 -0.862675 
60 1 95.94 28.7279 10.1744 2.44537 1.6502 -1.65092 4.70193 
83 1 95.94 26.6685 8.29874 2.08074 0.330975 -7.9189 -4.7391 
250 1 95.94 26.1342 10.1673 4.0905 6.02199 1.19229 8.01664 
87 1 95.94 1.84924 12.0185 2.15336 -4.47744 6.79274 -10.3994 
253 1 95.94 28.6577 12.0154 4.21045 4.26264 -4.38136 -1.74556 
254 1 95.94 1.93068 14.0557 4.16825 6.81171 -4.71612 -3.75502 
88 1 95.94 0.199192 14.112 2.07729 -3.6758 2.86856 -7.20317 
85 1 95.94 28.5565 12.3016 0.236254 1.15114 2.62315 -3.1996 
92 1 95.94 4.06987 13.9561 1.87689 1.39125 -0.208764 5.88423 
119 1 95.94 6.0629 16.5003 2.28463 5.97507 3.86476 -2.05143 
96 1 95.94 7.94058 14.2713 1.91271 -7.02318 6.45564 -0.186117 
123 1 95.94 10.2709 16.3412 1.8979 4.64375 -5.46746 -5.65142 
289 1 95.94 8.0178 16.3759 4.18992 -9.87596 0.213417 -1.78034 
94 1 95.94 9.76851 14.623 24.3073 1.71239 1.29268 6.89489 
121 1 95.94 7.96645 16.5383 0.158201 0.756248 -1.5259 2.91969 
93 1 95.94 8.03051 12.0503 24.5397 6.41436 2.60341 0.575291 
97 1 95.94 12.1002 12.5241 -0.0449351 2.45266 -2.60198 -4.69654 
100 1 95.94 12.1223 14.5245 1.993 -5.35341 -9.90045 6.89482 
99 1 95.94 14.083 12.3859 1.90468 0.928046 2.99636 4.20853 
104 1 95.94 16.7462 14.1703 2.30027 5.15666 6.25573 5.34691 
127 1 95.94 14.4594 16.1756 2.08186 -0.796756 -2.61467 0.648172 
129 1 95.94 16.3936 16.2759 24.4554 -8.049 -5.06666 10.1636 
98 1 95.94 14.442 14.3612 0.192141 3.21615 5.7692 -2.13388 
108 1 95.94 20.552 14.1856 2.40701 -2.79059 -3.16429 -0.790344 
131 1 95.94 18.2478 16.323 1.79379 -4.85199 10.8186 -0.22775 
102 1 95.94 18.6969 14.0844 0.0862816 -7.93146 -1.82677 3.59437 
112 1 95.94 24.9633 14.4932 1.77517 5.92616 -4.98702 2.76629 
137 1 95.94 24.1716 16.3085 24.5453 2.22927 -4.92762 2.78318 
305 1 95.94 24.7202 16.3018 4.11755 -5.87711 -2.09292 -10.7185 
111 1 95.94 26.775 12.2648 2.29303 7.23084 -3.16736 -3.4547 
110 1 95.94 26.6018 14.4171 24.388 6.72099 -4.77485 6.15452 
278 1 95.94 26.8725 14.1194 4.35901 4.76593 -5.68799 3.38781 
281 1 95.94 0.0944097 16.3043 3.87959 -7.39158 5.20227 3.78128 
115 1 95.94 2.24327 15.9753 2.09469 3.24835 3.14042 -6.04203 
143 1 95.94 2.23728 20.3799 2.04265 6.56263 6.33756 -5.7579 
120 1 95.94 4.03456 18.4626 2.2558 -0.982308 4.62557 -2.48776 
147 1 95.94 5.81226 20.567 2.05661 -1.17803 -6.59078 7.68523 
118 1 95.94 5.97615 18.3636 -0.134875 -0.996082 -8.28986 -5.93233 
124 1 95.94 7.84559 18.3623 2.1168 -5.5653 -5.99938 0.959153 
151 1 95.94 10.133 20.6837 2.15712 -0.81555 -5.94767 -4.03666 
317 1 95.94 8.25249 20.4 4.38996 -1.64106 -7.91942 -3.39769 
122 1 95.94 10.0692 18.5937 0.287661 -4.17287 3.807 -3.64846 
128 1 95.94 12.0383 18.5666 2.36948 -4.50115 7.59004 1.80399 
155 1 95.94 14.3115 20.644 2.2537 3.23478 -6.92143 -1.40219 
125 1 95.94 12.1259 16.6223 0.0435323 -5.58201 2.06695 3.7202 
126 1 95.94 14.2201 18.5203 0.495071 5.75089 -1.77581 1.15313 
132 1 95.94 16.5045 18.505 1.95436 2.63239 -4.44712 6.22318 
157 1 95.94 16.5804 20.707 24.5785 1.44095 -8.58504 8.96568 
325 1 95.94 16.4596 20.1006 4.04204 0.934318 -2.00396 2.7922 
136 1 95.94 20.4778 18.4382 2.10443 5.15152 2.08723 2.4544 
298 1 95.94 18.6483 18.3642 3.86723 -2.92123 -6.71598 6.10638 
130 1 95.94 18.6052 18.5364 0.172608 0.625585 -8.35904 5.88752 
159 1 95.94 18.2877 21.1004 2.24432 5.7965 3.71287 8.98008 
135 1 95.94 22.7048 16.5618 2.17249 -1.57513 7.02393 -0.736871 
140 1 95.94 24.4242 18.4954 1.95791 0.818113 -0.140322 -2.8837 
134 1 95.94 22.3715 19.1305 0.0445052 -7.38492 -3.02119 -3.04491 
113 1 95.94 0.147041 16.2585 -0.0772816 -4.92442 -0.396488 -11.5639 
139 1 95.94 26.8431 16.3171 2.07834 -1.84893 7.39877 1.25747 
116 1 95.94 0.271063 18.3822 2.21439 -4.09868 7.63925 3.23636 
167 1 95.94 26.7771 20.6185 2.08547 10.3591 -3.07391 3.94204 
144 1 95.94 0.0557704 22.545 1.77235 0.733381 -2.57785 2.37252 
169 1 95.94 0.384531 24.6615 4.12737 8.75042 6.83287 4.83206 
142 1 95.94 2.00443 22.3309 24.4884 2.76235 9.39955 4.13727 
5 1 95.94 4.08558 24.3662 24.1421 2.60955 -3.60073 1.41194 
7 1 95.94 6.30464 24.3785 1.91938 -2.96324 1.04367 0.97602 
148 1 95.94 3.95356 22.4738 1.98341 1.75413 -1.86011 0.32414 
146 1 95.94 6.003 22.3367 0.202595 -1.60805 3.42155 -4.8405 
313 1 95.94 3.97093 20.587 4.28154 -9.47206 5.07294 4.63239 
11 1 95.94 9.67656 0.175041 2.35908 -2.81885 6.76198 -0.610722 
152 1 95.94 8.40921 22.4866 1.96195 -5.89704 5.41315 -1.01214 
318 1 95.94 10.0432 22.4831 4.07119 3.18942 7.55402 2.54324 
177 1 95.94 7.94907 0.089583 4.51213 3.00988 -3.02339 3.98952 
9 1 95.94 8.3179 24.503 24.4135 0.270201 1.50771 6.66764 
181 1 95.94 11.8644 0.304114 4.08007 7.30674 0.0727347 -4.11809 
156 1 95.94 11.8695 22.8721 2.14488 2.15269 -1.07867 -11.7357 
154 1 95.94 14.2179 22.8507 0.0420259 7.54943 0.245383 -4.2512 
160 1 95.94 16.3032 23.0532 2.13843 4.14019 -5.76588 -0.948083 
17 1 95.94 16.4114 0.493319 0.310374 -3.47323 -1.80415 5.20892 
189 1 95.94 20.6473 0.598652 4.2693 3.59137 1.46456 8.93109 
161 1 95.94 20.4983 20.9077 0.344948 1.56393 -1.02085 9.70335 
164 1 95.94 20.1952 22.9552 2.15458 3.62588 0.629305 2.82328 
326 1 95.94 17.9758 22.6462 4.26806 5.84539 5.82874 7.15826 
158 1 95.94 18.5288 22.6781 0.0939721 1.64646 -0.134795 -5.31825 
163 1 95.94 22.6201 20.5754 1.97826 2.84441 0.0991849 -0.566735 
162 1 95.94 22.4567 22.7849 0.0408235 3.54723 -7.69405 0.400368 
168 1 95.94 24.5821 22.7604 2.33977 5.88251 -5.50199 -5.94087 
330 1 95.94 22.3381 22.6625 3.79419 4.81902 0.73916 1.00719 
165 1 95.94 24.8058 20.6479 24.3726 0.829828 -5.14456 -1.89129 
334 1 95.94 26.7463 22.6031 3.7847 2.78521 -1.31697 -7.49306 
166 1 95.94 27.0421 22.553 0.0704921 -3.92836 -3.90491 0.187098 
171 1 95.94 2.24531 24.4017 6.18339 4.72123 -7.36556 2.76564 
337 1 95.94 28.4948 24.583 8.23748 -4.36394 5.0447 -1.32306 
338 1 95.94 2.08804 2.15907 8.15081 9.63397 3.57902 1.83224 
176 1 95.94 4.19028 1.60909 6.06629 -2.26706 -9.47257 5.3116 
175 1 95.94 6.22233 -0.0112162 6.53945 -8.19163 -4.95632 -5.88495 
203 1 95.94 6.08925 4.15666 6.41346 0.831774 -6.39349 6.98401 
369 1 95.94 4.05108 4.13827 8.19595 -5.39781 -4.11592 -2.19802 
342 1 95.94 5.91138 2.05942 8.26526 -5.00247 -6.24526 -8.03227 
205 1 95.94 8.0832 4.26617 4.17219 -2.20274 7.48053 -6.49845 
180 1 95.94 8.17107 2.41924 6.56561 13.2451 -4.00863 -7.26122 
207 1 95.94 10.3154 4.02216 6.35638 -5.80929 -8.83465 4.58694 
209 1 95.94 12.2801 4.03945 4.25218 4.13336 4.07053 6.249 
182 1 95.94 14.3398 2.21242 4.21137 -12.0394 -6.20915 4.64275 
184 1 95.94 12.4567 1.83097 6.29236 -2.9459 4.33342 -5.44283 
211 1 95.94 14.4188 4.32086 6.18907 -6.03736 7.47637 -3.29228 
377 1 95.94 12.5088 3.92628 7.98702 4.62027 4.94282 3.10567 
350 1 95.94 14.693 1.90162 8.15659 -1.10153 -1.03986 0.610411 
213 1 95.94 16.4342 4.25337 4.04064 4.94701 2.7563 -0.899213 
188 1 95.94 16.2651 2.36025 6.15385 8.61362 0.754995 3.34192 
217 1 95.94 20.2642 3.92723 4.25783 -13.644 1.2044 -4.71075 
192 1 95.94 20.8124 2.38681 6.58873 -5.76925 -3.15815 -3.1921 
215 1 95.94 18.5366 4.4533 6.4538 -1.41017 2.15411 -1.18413 
357 1 95.94 20.6 0.375034 8.06736 6.26726 -1.00093 4.17458 
385 1 95.94 20.607 4.38177 8.37036 -0.2119 -1.15289 2.41032 
354 1 95.94 18.3901 2.50702 7.90154 -1.95414 8.85502 -0.140376 
190 1 95.94 22.6459 2.17249 4.26059 8.84274 -16.5083 0.00660649 
196 1 95.94 24.8028 2.30904 6.25225 1.615 -6.93262 -0.0841162 
172 1 95.94 0.0838285 1.95054 5.8538 -5.57366 -8.2816 4.08952 
199 1 95.94 2.31268 4.07489 6.18814 -1.27645 -5.6972 -1.15615 
198 1 95.94 2.32641 6.34699 3.53137 -6.27127 -2.33531 3.82067 
200 1 95.94 0.29847 6.04807 6.1626 4.81105 -6.41125 1.72134 
202 1 95.94 6.12974 6.28828 3.82253 -4.08992 4.64886 3.59763 
229 1 95.94 4.17721 8.27604 3.9398 1.59681 -0.874964 3.17402 
204 1 95.94 4.45526 6.14797 6.13319 -1.51581 5.44402 0.852341 
370 1 95.94 6.17753 6.329 8.18022 1.57587 -3.44527 -5.57209 
233 1 95.94 8.4588 8.06321 3.72219 2.57235 5.60865 1.60912 
208 1 95.94 8.28544 5.66104 6.07262 11.6827 2.68493 -6.32076 
235 1 95.94 10.041 7.86203 6.33613 -1.07457 -4.94965 2.3585 
401 1 95.94 8.32196 8.34158 8.33948 -4.20548 7.23735 3.11829 
373 1 95.94 7.93769 4.23612 8.34821 0.402342 -2.18583 -2.27168 
237 1 95.94 11.765 8.40278 3.98631 1.74372 -5.28821 5.12065 
212 1 95.94 12.1827 6.33491 6.04079 4.41578 0.322572 11.3439 
239 1 95.94 13.7832 8.35897 5.69692 -5.22085 0.713777 -1.99277 
378 1 95.94 14.107 6.55551 7.94054 8.98748 -4.3373 0.927087 
405 1 95.94 11.9671 7.99216 8.08683 13.6515 -2.14599 3.06372 
210 1 95.94 14.1504 6.19439 3.8052 0.851049 2.515 -0.665318 
241 1 95.94 16.2889 8.41199 3.4662 11.451 2.69466 -0.119059 
216 1 95.94 15.8951 6.88477 5.88657 -0.945438 -6.0732 2.47667 
245 1 95.94 20.3527 8.21626 4.2059 0.449292 3.34189 3.64638 
214 1 95.94 17.9811 6.53725 3.76116 1.05619 2.0651 7.31802 
220 1 95.94 20.6169 6.11342 6.29975 4.74703 4.04026 12.1041 
243 1 95.94 18.1496 7.96687 6.25192 -2.74357 -6.47065 -3.88581 
221 1 95.94 24.7788 4.1685 4.40045 -1.87199 -0.116162 -2.3479 
218 1 95.94 22.4672 6.03943 4.2249 -8.48171 -1.9415 0.407539 
219 1 95.94 22.5734 4.21161 5.94149 -3.40431 -8.25108 9.9415 
224 1 95.94 24.7761 5.98243 6.17092 2.36804 -2.61276 -4.95397 
389 1 95.94 24.4399 4.28732 8.44939 -2.72392 -3.05682 -0.193952 
222 1 95.94 27.0025 6.02879 3.74442 -8.14385 1.70502 4.48771 
223 1 95.94 26.8867 3.89581 6.23317 0.380206 8.03855 -0.613795 
390 1 95.94 26.6305 5.78322 8.14197 3.75912 -7.25555 -4.00196 
227 1 95.94 2.19475 7.85109 6.02602 -6.14914 -0.100121 -0.00672112 
255 1 95.94 2.20764 12.3599 6.50434 4.51915 5.36545 -2.06215 
231 1 95.94 6.31675 7.90277 5.86984 -0.696761 -4.65392 6.10016 
232 1 95.94 4.21895 10.2021 6.1116 -5.19688 -1.60138 3.67818 
398 1 95.94 6.18803 10.2709 8.54433 -0.620395 -8.52248 -9.0099 
261 1 95.94 8.20414 12.3042 3.97605 4.20274 -1.19307 1.7953 
236 1 95.94 8.32892 10.0962 5.95156 0.721262 4.81039 2.5036 
240 1 95.94 12.1958 10.4478 6.0785 1.14188 3.40177 8.29779 
269 1 95.94 16.197 12.1348 4.29136 2.91916 -6.89887 -0.0130567 
244 1 95.94 15.984 9.69638 5.80013 -9.47701 -6.8925 -6.86136 
267 1 95.94 14.2058 12.2792 5.94226 1.07237 2.07304 -8.42271 
242 1 95.94 18.3662 9.86497 3.84088 -4.30057 -2.50633 -2.87731 
248 1 95.94 20.6697 9.93454 6.10452 2.46025 6.65952 2.24122 
271 1 95.94 18.356 12.1108 5.7432 2.28695 0.709675 -6.06937 
246 1 95.94 22.6311 10.2329 4.23912 -3.06792 3.63705 5.04641 
277 1 95.94 24.5779 12.2349 3.52771 -3.3668 3.00042 -7.00295 
417 1 95.94 25.0714 7.87053 8.34058 -4.64272 5.32107 3.64602 
247 1 95.94 22.9941 7.89893 6.24567 -2.35325 -4.42908 -2.84582 
252 1 95.94 24.6588 10.0054 6.14495 4.92141 -2.6634 2.64248 
275 1 95.94 22.5991 12.1383 6.00047 -0.0502544 6.52584 -8.04744 
251 1 95.94 26.5929 7.60426 6.09202 1.04402 3.05132 -2.28104 
228 1 95.94 28.3801 10.002 6.39229 -0.814625 0.297309 -9.2335 
421 1 95.94 28.524 12.16 8.29608 -2.03255 -3.62839 3.03398 
393 1 95.94 0.118617 7.79269 8.49559 1.80185 2.35246 0.578411 
256 1 95.94 0.265358 14.2522 6.37792 -7.22164 -6.37945 -1.76328 
283 1 95.94 2.25389 16.2425 6.08525 6.13791 -4.03738 -9.51837 
257 1 95.94 3.91131 11.9545 4.10959 -2.78664 -1.48621 -0.663813 
258 1 95.94 6.11454 14.4568 3.9488 -1.6053 -8.3743 3.7155 
259 1 95.94 6.0695 12.0803 5.83923 5.40499 -0.0400966 4.16715 
260 1 95.94 4.23235 14.1059 6.34932 1.47937 14.1462 4.61627 
426 1 95.94 6.16881 14.3221 8.0382 3.69974 -1.43595 -4.84623 
285 1 95.94 4.11049 16.1705 4.17287 1.47846 -3.25266 1.07383 
287 1 95.94 6.28375 16.3138 6.3071 -4.92656 -7.30912 0.655473 
453 1 95.94 4.10841 16.3918 8.25524 0.50627 5.00494 6.03594 
262 1 95.94 10.2716 14.1742 3.97299 -10.8536 -6.43716 6.24677 
263 1 95.94 10.3325 12.3206 6.03798 -6.67155 10.6167 10.2198 
264 1 95.94 8.26419 14.1978 6.29633 5.25577 3.81058 -0.600951 
291 1 95.94 10.1921 16.3767 6.09703 2.71493 -9.0052 4.79269 
457 1 95.94 8.43519 16.3975 8.27353 -8.78825 2.42386 -1.89315 
268 1 95.94 12.2957 14.3879 6.23313 -0.446556 2.41216 -4.19374 
293 1 95.94 12.34 16.4861 4.10377 -9.95561 0.418122 7.03854 
266 1 95.94 14.1068 14.5507 3.91463 -3.66901 -5.98179 -1.73619 
272 1 95.94 16.6446 14.3546 5.38644 -3.20103 -2.12205 0.601163 
295 1 95.94 14.4828 16.0428 6.17643 0.0243979 0.184892 -2.95968 
434 1 95.94 14.7555 14.2672 7.94412 -2.721 -6.96249 -6.01061 
270 1 95.94 18.5387 14.1082 3.84023 6.73033 4.94515 -0.387003 
276 1 95.94 20.3143 14.2011 5.93981 -7.08375 -1.59535 4.42761 
299 1 95.94 18.3252 15.9443 6.10652 -2.64231 2.15698 0.0720817 
469 1 95.94 20.074 16.3019 8.3958 1.32955 -6.90975 2.16636 
274 1 95.94 22.5338 14.0966 3.84777 0.0371677 0.017 9.80984 
280 1 95.94 24.6233 14.1843 5.90553 2.56301 8.51708 5.65624 
473 1 95.94 24.3921 16.3686 7.62873 3.76722 3.67522 6.62433 
303 1 95.94 22.2945 16.3244 5.95048 -8.0298 -6.41436 8.92506 
442 1 95.94 22.5361 14.2862 7.46003 -10.9408 1.5395 4.82931 
279 1 95.94 26.6388 12.0958 6.38685 -5.64486 2.27197 -4.63088 
307 1 95.94 26.6658 16.3542 5.97612 5.5214 4.96384 2.06542 
282 1 95.94 2.20893 18.3509 4.39524 3.06056 -0.422921 0.438477 
309 1 95.94 0.0517692 20.45 4.21339 -7.94496 -4.73308 9.83093 
450 1 95.94 2.04208 18.3513 8.11326 -1.37561 -0.366823 -0.20459 
311 1 95.94 1.47684 20.6035 6.45696 2.16389 3.62259 -0.822381 
286 1 95.94 6.05124 18.4393 4.34567 2.67325 11.5602 6.72883 
288 1 95.94 4.15942 18.4522 6.35642 2.1927 -3.88311 -0.258377 
315 1 95.94 6.26715 20.5551 6.4958 7.38869 5.86835 12.1601 
290 1 95.94 10.1855 18.4958 3.95929 -4.80205 -1.93324 -7.00286 
292 1 95.94 8.10872 18.4269 6.1791 3.11728 3.00824 -5.88709 
319 1 95.94 10.3105 20.7013 5.80002 -1.72089 6.07836 -3.66289 
458 1 95.94 10.5347 18.6721 7.97866 -5.60821 2.65553 -15.6957 
485 1 95.94 8.27619 20.1759 8.07099 -7.15984 3.46432 -1.88668 
296 1 95.94 12.3877 18.6256 6.0462 4.10589 4.75514 3.69151 
321 1 95.94 12.7 20.57 3.94399 2.30319 9.79357 0.399882 
489 1 95.94 12.3558 20.5649 8.18585 -2.17025 -6.09552 3.81886 
297 1 95.94 16.5077 16.4121 4.07226 -1.8436 -0.200289 -5.23363 
294 1 95.94 14.3001 18.066 4.08298 -3.25292 2.53744 -3.99627 
300 1 95.94 16.4703 18.3379 6.10723 9.71397 2.29763 -1.43192 
323 1 95.94 14.39 20.6352 6.25533 1.08731 9.91912 3.5133 
301 1 95.94 20.5137 16.439 4.01579 4.34321 1.37111 -3.17333 
304 1 95.94 20.321 18.7079 6.22509 5.88147 0.720354 -0.549751 
329 1 95.94 20.208 20.3973 4.05104 5.40638 -1.41154 0.373965 
302 1 95.94 22.1883 18.1967 4.23737 -3.07122 -1.35734 -10.1945 
308 1 95.94 24.7736 18.6297 5.91149 -3.05036 3.16948 0.929965 
470 1 95.94 22.6097 18.4298 8.01573 -4.57467 -4.73283 3.93571 
284 1 95.94 28.407 18.1523 6.13169 1.82678 5.81108 1.50621 
306 1 95.94 26.6005 18.5396 4.08683 -1.14819 -1.26428 -0.703918 
335 1 95.94 26.5148 20.7176 6.0741 -3.84356 9.78892 -2.43461 
310 1 95.94 2.17917 22.5222 3.87902 1.25852 -12.0996 8.33592 
478 1 95.94 1.29975 22.5287 8.31467 1.59889 -7.75587 -6.01103 
173 1 95.94 4.22886 24.5204 3.86897 1.66115 0.868083 -1.73056 
341 1 95.94 3.58168 24.0338 8.55311 -8.25197 6.50995 4.78754 
314 1 95.94 5.97906 22.2419 4.12924 -6.86716 -5.03615 0.75624 
316 1 95.94 3.9069 22.31 6.35088 2.46443 3.80524 1.44046 
179 1 95.94 9.85289 24.6541 6.12328 -1.82811 9.16881 3.5571 
320 1 95.94 7.8749 22.556 6.39408 -2.74708 3.29188 1.74541 
322 1 95.94 14.6367 22.9099 4.31625 -6.77419 -4.87046 -6.27071 
324 1 95.94 12.076 22.5391 6.10833 4.30816 -0.14512 0.945072 
183 1 95.94 14.3533 0.155439 5.8866 -1.14824 -2.7307 1.45645 
349 1 95.94 12.6896 24.5504 8.45634 5.13529 5.59918 -7.15118 
328 1 95.94 16.42 22.3805 6.39799 2.92333 -3.72902 -6.69679 
490 1 95.94 14.4219 22.6596 7.97633 -2.10672 -3.70133 -2.66107 
187 1 95.94 18.5256 0.128336 6.40843 5.50136 1.02283 5.21974 
327 1 95.94 18.3319 20.4899 6.13158 3.00373 -3.35189 1.0668 
332 1 95.94 20.5363 22.981 5.87641 4.43936 3.42381 -9.07803 
497 1 95.94 20.5657 20.5354 7.81098 -6.54789 -3.25731 2.66404 
494 1 95.94 18.7778 22.6834 7.74989 7.11507 -0.558083 12.1469 
193 1 95.94 24.6146 0.125733 4.27198 -4.98308 -6.31464 -3.92223 
333 1 95.94 24.4724 20.5979 4.04489 -1.53262 -13.7473 7.15348 
191 1 95.94 22.6964 0.121649 6.32553 -6.14922 -1.60007 -0.241631 
331 1 95.94 22.4072 20.6733 5.69234 2.80927 -2.97647 1.73623 
336 1 95.94 24.729 22.7346 6.02997 0.132866 -3.98771 -4.03511 
195 1 95.94 26.7413 0.298444 6.06747 2.23644 -12.6674 1.87552 
312 1 95.94 28.5354 22.7152 5.82195 -2.69731 -7.97817 2.55017 
502 1 95.94 26.6783 22.6822 8.18582 -10.6077 -4.01328 11.9231 
506 1 95.94 2.04545 1.8872 12.4022 3.62934 -2.22909 -1.15948 
340 1 95.94 0.174822 2.1517 10.0108 -8.67765 1.79895 -6.73201 
505 1 95.94 -0.0290738 24.6601 12.2843 -11.1134 3.77149 -2.11535 
344 1 95.94 4.29952 1.81261 10.2442 4.72083 -1.3196 -3.98091 
510 1 95.94 6.09312 1.79055 12.1606 0.465018 -4.60706 12.2083 
371 1 95.94 5.91397 4.12467 10.3838 -5.18897 3.53987 -4.56542 
509 1 95.94 4.22535 24.0671 11.8995 -1.66353 11.5296 -7.36145 
346 1 95.94 10.3801 1.63745 7.94491 5.20864 -4.29794 -1.47824 
345 1 95.94 8.04092 24.4478 8.54344 -10.3253 -2.0076 -6.38177 
348 1 95.94 7.88843 2.09097 9.88863 -5.16712 3.46894 4.66696 
375 1 95.94 10.1392 3.91752 9.82637 2.53304 -0.69864 5.55178 
514 1 95.94 10.3316 1.75328 12.3344 1.54229 3.41851 2.06387 
513 1 95.94 8.12291 24.3034 11.8874 -1.09243 -1.04793 0.968165 
352 1 95.94 12.7164 2.25345 10.1509 1.54699 -4.21611 -0.71683 
379 1 95.94 13.9878 4.08425 9.72114 -0.630256 0.499512 0.422425 
545 1 95.94 12.2812 3.94489 12.1871 4.59971 1.6132 3.53432 
518 1 95.94 14.3766 2.14475 12.3363 -0.748541 4.69159 2.57242 
356 1 95.94 16.4237 2.31008 10.1844 -0.610357 -11.5979 3.60417 
549 1 95.94 16.2442 4.58371 12.2342 -0.739658 -5.18063 -0.873642 
381 1 95.94 16.2291 4.23391 8.02045 0.539687 4.54836 3.64738 
360 1 95.94 20.441 1.95755 10.1063 -5.56632 4.66417 4.45407 
383 1 95.94 18.2501 4.09266 10.1427 7.35307 10.6079 -10.455 
355 1 95.94 18.3126 0.254904 10.0298 -1.39315 9.45999 -0.619734 
358 1 95.94 22.8345 2.51605 8.11821 1.16309 -3.74754 -2.67148 
364 1 95.94 24.675 2.2319 9.93231 -7.7634 0.592649 -12.1417 
387 1 95.94 22.4969 3.9614 10.3336 -6.00858 4.44705 -5.52715 
362 1 95.94 26.9176 2.21721 8.45386 1.09384 -0.155634 -4.32299 
363 1 95.94 26.6214 0.0710931 10.1122 2.83901 1.62674 0.765671 
530 1 95.94 26.6614 1.90152 12.0388 4.25695 2.55965 8.07127 
367 1 95.94 2.61672 3.90174 10.3267 -4.59658 4.52819 5.42795 
366 1 95.94 2.13897 6.21487 8.54687 -5.10154 0.58153 2.60175 
365 1 95.94 0.138733 4.15603 7.82339 0.896496 -1.28261 -5.83445 
395 1 95.94 1.98176 8.17358 10.4034 0.840213 2.91323 -1.75846 
534 1 95.94 1.99784 5.97617 12.1725 4.20337 -0.631705 -1.14101 
372 1 95.94 4.29601 6.03169 10.4769 -3.8191 0.0758196 1.91208 
565 1 95.94 4.11776 8.02318 12.6752 -12.7247 -0.568932 -1.96603 
374 1 95.94 10.0332 5.86596 8.17036 -3.77251 -6.57504 0.990949 
376 1 95.94 8.09044 6.19597 10.2768 4.98114 1.9566 -1.58267 
542 1 95.94 10.5232 5.68209 12.4539 1.44134 0.311872 -2.69639 
403 1 95.94 10.2312 8.45362 10.3064 0.440683 -10.4041 5.00633 
569 1 95.94 8.28834 8.10282 12.1449 0.0369749 -2.13385 -1.15694 
380 1 95.94 12.1078 5.95536 10.0908 -2.16076 -8.11318 -1.87974 
407 1 95.94 14.0592 7.79753 10.4718 4.80411 12.333 0.761356 
573 1 95.94 11.8249 7.94378 12.6301 -3.66131 11.0913 -1.39931 
409 1 95.94 16.214 8.39543 8.19718 -0.203787 1.46828 4.02268 
384 1 95.94 15.997 6.41638 10.1604 -2.7955 3.21522 2.59199 
382 1 95.94 18.2548 6.38386 8.11156 2.21802 8.13262 2.35542 
413 1 95.94 20.4481 7.93269 8.08112 -5.20467 1.67083 -5.35756 
388 1 95.94 20.6155 6.12523 10.0408 4.57878 -7.35433 1.16724 
411 1 95.94 18.2171 8.24095 10.3238 -1.88714 1.16326 -2.18103 
550 1 95.94 18.4186 6.38345 12.1385 9.31441 -3.0217 4.09196 
386 1 95.94 22.9504 6.32461 8.20394 0.436505 2.16009 2.6267 
392 1 95.94 24.4438 6.10489 10.3577 -4.81874 -1.33506 -10.0253 
415 1 95.94 22.6602 8.0861 10.2957 3.00478 2.10857 -3.73339 
391 1 95.94 26.4598 4.3498 10.635 -3.30152 3.50081 2.75647 
368 1 95.94 0.159544 5.79172 10.2491 -2.71977 5.63042 0.361614 
533 1 95.94 0.118836 3.97561 12.4139 2.99877 -14.7493 3.40004 
558 1 95.94 26.7678 5.87921 12.7295 3.55206 -1.51241 -9.56637 
394 1 95.94 2.1542 10.1964 8.05845 0.304413 -4.58012 2.52265 
423 1 95.94 1.83962 12.4838 10.0796 -2.27037 9.36851 -1.58363 
397 1 95.94 4.39958 8.26075 8.38217 3.38509 -10.605 3.09449 
425 1 95.94 4.14197 12.1703 8.64422 -8.77266 -2.63022 -5.74852 
399 1 95.94 6.30465 7.92858 10.4067 -6.78601 -3.27009 0.291428 
400 1 95.94 4.11189 9.90623 10.3293 0.705446 -5.69554 13.7221 
402 1 95.94 10.0459 10.0363 8.01864 2.06881 1.27431 -0.75493 
429 1 95.94 8.40756 12.2535 7.97561 -7.66904 -0.349493 8.10589 
404 1 95.94 8.25763 10.6554 10.6604 -4.84547 3.37652 -4.45988 
570 1 95.94 10.5965 10.3941 12.3631 -0.779786 -0.511794 0.166739 
431 1 95.94 10.4127 12.3049 10.0781 -5.59228 2.65686 1.614 
406 1 95.94 14.1748 9.84564 7.99766 1.33739 -4.53831 5.26952 
433 1 95.94 12.3531 12.2536 8.10991 1.7531 -2.48081 -3.35393 
408 1 95.94 12.0384 10.0891 10.191 -8.03858 5.52586 2.36396 
437 1 95.94 16.2532 12.0738 7.74722 2.38488 -3.5701 -3.78497 
412 1 95.94 16.0915 10.4052 10.1943 -7.22836 0.328581 4.85291 
435 1 95.94 14.417 12.2037 10.0482 -3.54141 9.75836 2.80271 
605 1 95.94 16.468 12.0044 12.2635 4.04011 -1.92485 -1.45879 
410 1 95.94 18.3109 10.0934 7.94083 4.49619 0.517022 -3.19481 
416 1 95.94 20.5552 10.0925 10.3267 -2.89955 2.05663 -3.56094 
441 1 95.94 20.3608 12.0311 8.02342 1.22091 -2.48476 2.09267 
439 1 95.94 18.6465 11.8606 10.2208 -11.2238 4.06634 9.32548 
414 1 95.94 22.5333 9.82237 8.24504 -4.38003 -11.2728 -1.58035 
445 1 95.94 24.5825 12.1789 7.94615 3.93356 -1.56439 -5.0731 
420 1 95.94 24.453 10.0513 10.2405 -0.776809 4.22958 8.47433 
419 1 95.94 26.3953 7.66151 10.5902 -6.96555 2.82387 -4.56559 
418 1 95.94 26.398 10.2082 8.70318 -0.749081 2.85112 4.06587 
396 1 95.94 0.0235236 10.0465 10.1046 -11.5284 2.66223 8.09386 
586 1 95.94 26.1664 10.0488 12.238 -3.8882 -4.98911 -1.95554 
422 1 95.94 2.14201 14.3471 8.52284 -0.822077 -6.13506 4.92653 
449 1 95.94 28.3861 16.5118 8.09444 2.27756 5.77712 3.17807 
590 1 95.94 1.77957 14.2664 12.1961 3.89298 -3.34811 0.948189 
424 1 95.94 28.3459 14.6618 10.2155 -0.689835 2.4163 -2.90724 
427 1 95.94 6.14377 12.4596 10.1768 1.26985 -5.02504 -2.2499 
428 1 95.94 4.03383 14.323 10.2873 -1.79244 -6.1325 -9.92964 
455 1 95.94 6.00029 16.1731 10.3735 -11.0004 -8.91727 3.52704 
430 1 95.94 10.1671 14.2901 8.34531 5.87327 3.30691 -6.91717 
597 1 95.94 8.46782 12.4853 12.2724 2.49017 -8.62669 0.533043 
432 1 95.94 8.25499 14.2358 10.4042 7.02578 -4.33066 1.01913 
459 1 95.94 10.4111 16.1993 10.3843 -0.121818 0.11602 1.25222 
625 1 95.94 7.92746 16.4705 12.3064 2.81545 -0.142312 -1.08325 
598 1 95.94 9.93488 14.5164 12.6019 4.44217 -1.10369 -5.47378 
461 1 95.94 12.1416 16.6149 8.53108 -2.97586 1.11382 0.116015 
436 1 95.94 12.4895 14.2195 9.97032 -6.87825 -5.48484 2.30335 
440 1 95.94 16.2606 14.1147 10.3283 4.21134 -2.31779 5.25342 
438 1 95.94 18.345 13.7611 7.92085 -3.25686 -4.66331 -2.72464 
444 1 95.94 20.4159 13.9714 10.2634 -4.54925 -0.425955 -1.40749 
467 1 95.94 18.239 16.103 9.90389 3.14597 -8.80273 1.99452 
443 1 95.94 22.4233 12.3284 10.1152 3.48866 0.16853 0.365913 
448 1 95.94 24.3124 14.2195 10.2471 -1.07637 -2.83642 -3.76206 
471 1 95.94 22.1195 16.1494 9.96933 2.11419 -3.49152 4.25378 
610 1 95.94 22.3416 14.2156 12.1661 4.66402 5.48412 -1.22816 
641 1 95.94 24.2969 16.1106 12.0834 5.49253 -1.9686 -2.09676 
446 1 95.94 26.5142 14.3774 8.28923 6.85579 -12.7992 4.28683 
447 1 95.94 26.2002 12.3845 10.0544 1.20177 8.97683 -0.136075 
475 1 95.94 26.3399 16.3412 10.4085 -0.990052 0.290048 5.19275 
451 1 95.94 2.19934 16.4084 10.322 -2.0267 -2.2826 1.53774 
452 1 95.94 28.4529 18.139 10.4408 2.91312 -1.59655 8.09693 
479 1 95.94 2.01819 20.4415 10.2064 -4.82831 2.61733 9.88525 
454 1 95.94 6.04747 18.2492 8.36424 -1.0735 12.6174 -6.76978 
481 1 95.94 4.23167 20.1043 8.31589 -1.48397 -3.98732 5.36251 
456 1 95.94 4.17186 18.4077 10.3936 0.576527 -7.70624 6.83355 
649 1 95.94 4.23395 20.4017 12.1859 2.01411 -7.3356 -4.51142 
483 1 95.94 6.22816 20.383 10.2728 2.97644 8.13387 -0.150138 
622 1 95.94 6.24568 18.1997 12.1305 -4.34184 0.238471 -5.23713 
460 1 95.94 8.23762 18.1122 10.1388 1.76254 3.23164 0.784017 
487 1 95.94 10.7059 20.3915 9.96535 4.12077 -8.32512 7.2998 
629 1 95.94 12.444 16.2402 12.3135 3.48054 5.38724 5.06389 
464 1 95.94 12.2418 18.6247 10.3532 -6.94753 6.44161 2.59453 
465 1 95.94 16.5253 16.2597 7.9631 0.441311 7.71641 -0.638959 
462 1 95.94 14.236 18.4866 8.07296 7.45127 -1.95871 -1.06451 
463 1 95.94 14.3368 16.3418 10.2386 3.42524 -2.61245 -4.48098 
468 1 95.94 16.5858 18.2211 10.0203 -3.73413 -3.95774 3.69906 
630 1 95.94 14.528 18.4318 12.0492 5.63184 -3.51819 4.19721 
491 1 95.94 14.5973 20.623 10.3193 10.2221 -2.43313 -9.45816 