ITEM: TIMESTEP
0
ITEM: NUMBER OF ATOMS
2
ITEM: BOX BOUNDS
0.000000 2.000000
0.000000 2.000000
0.000000 2.000000
ITEM: ATOMS id type xs ys zs
1 1 0.000000 0.000000 0.000000
2 1 0.500000 0.500000 0.500000
