ITEM: TIMESTEP
21000
ITEM: NUMBER OF ATOMS
500
ITEM: BOX BOUNDS pp pp pp
-6.7076025513298632e-01 2.0895760255133091e+01
-6.7076025513298632e-01 2.0895760255133091e+01
-6.7076025513298632e-01 2.0895760255133091e+01
ITEM: ATOMS id type mass x y z vx vy vz 
348 1 26.9815 -0.284744 1.95257 1.78851 3.81196 -6.80188 -0.0319206 
254 1 26.9815 1.7281 4.30273 2.09628 -1.27121 7.94973 -2.99425 
103 1 26.9815 1.43483 1.16387 3.91084 5.29934 2.39591 -5.92974 
451 1 26.9815 2.13286 2.52088 0.223061 1.52548 9.27708 -3.41776 
43 1 26.9815 3.2868 -0.0422407 1.29147 -8.64806 -8.16239 -2.56764 
452 1 26.9815 -0.301761 4.26158 0.274273 -0.965789 2.89025 3.40509 
35 1 26.9815 0.778435 0.602513 -0.386591 1.22651 -6.53546 4.66132 
59 1 26.9815 4.36298 2.5978 1.75712 5.84203 -7.40256 -3.90767 
64 1 26.9815 6.61309 2.00857 4.33961 2.52323 -4.28562 1.2354 
42 1 26.9815 6.23722 0.394303 1.98169 4.91881 1.97907 -6.69541 
78 1 26.9815 5.45055 0.338176 -0.483371 -1.18729 -4.69495 -2.6284 
480 1 26.9815 4.55123 4.41606 3.91583 1.28725 -2.21376 0.706696 
45 1 26.9815 4.38241 0.54751 3.98844 -1.36523 -1.17947 -8.62634 
20 1 26.9815 6.51869 3.53988 2.32052 -6.1184 -3.49465 5.71593 
196 1 26.9815 4.37424 4.5819 0.143733 6.68588 -1.31058 5.82875 
492 1 26.9815 8.18131 1.15342 -0.319565 1.68893 2.42542 -9.07421 
287 1 26.9815 8.37189 0.052365 3.94031 -4.35259 9.13168 -7.24691 
86 1 26.9815 11.2197 0.968938 0.418684 -7.47741 0.857557 -3.16015 
77 1 26.9815 8.85099 3.6948 4.69041 -6.44644 9.68156 -7.02709 
335 1 26.9815 10.3167 2.23245 3.65322 -7.51899 4.36987 -7.01016 
40 1 26.9815 11.6055 4.69382 2.49946 -1.51347 2.57114 0.297438 
116 1 26.9815 12.9357 0.839762 2.74122 3.51627 -4.5488 -4.60721 
27 1 26.9815 14.2555 0.162449 0.549013 -7.40547 8.624 -0.637003 
224 1 26.9815 13.407 2.75073 0.912251 0.0402416 -0.845985 -4.17543 
208 1 26.9815 14.6398 3.12738 3.49935 5.70852 3.71131 -4.0217 
324 1 26.9815 15.542 3.99557 -0.39834 3.38504 7.91769 -5.35954 
302 1 26.9815 15.0953 -0.568131 2.80755 7.46953 9.48899 -8.99607 
44 1 26.9815 20.3233 -0.220319 3.31023 -0.410951 -5.95058 1.71356 
278 1 26.9815 19.3644 2.54105 4.45448 6.51606 9.36477 -8.10715 
89 1 26.9815 16.8254 1.1443 -0.27541 -2.9862 -0.631262 0.45994 
281 1 26.9815 18.2471 3.12813 0.44481 3.34487 -1.81432 4.6591 
54 1 26.9815 18.6363 0.915879 1.64898 -7.59698 5.91016 4.29786 
352 1 26.9815 0.512809 7.96968 2.53541 6.75216 3.69132 -7.15972 
46 1 26.9815 0.444327 5.76734 3.89593 -5.25656 9.2802 -6.31674 
181 1 26.9815 3.03122 8.4462 1.90561 3.58321 -6.93683 5.29312 
223 1 26.9815 2.24732 6.32957 0.479421 -1.67998 -4.97868 -2.6072 
129 1 26.9815 3.36268 6.84053 4.16041 -1.34654 -1.19536 1.50487 
32 1 26.9815 1.38467 9.18329 -0.504669 -4.28355 5.06169 -5.37296 
184 1 26.9815 -0.496362 10.0345 3.60888 5.27813 -2.95098 -6.00664 
121 1 26.9815 6.61636 9.12337 -0.400053 1.8647 -0.698571 -3.34158 
84 1 26.9815 4.01628 5.7399 2.22798 -6.21763 -7.68762 -7.77292 
117 1 26.9815 6.53122 6.53283 1.62037 6.72305 -5.01576 2.6066 
326 1 26.9815 7.89458 8.58458 2.78023 -2.70171 -6.33356 -2.87816 
156 1 26.9815 6.82253 6.5407 4.12416 -2.3716 -3.05907 7.08657 
244 1 26.9815 5.65988 9.46846 2.08937 -5.59713 -3.51142 0.983005 
291 1 26.9815 12.2308 7.77098 -0.208545 -9.10337 -8.45375 -1.38063 
457 1 26.9815 10.7286 5.7843 -0.532573 3.57767 -7.66071 0.937533 
80 1 26.9815 8.79201 4.86379 2.23266 5.77081 -3.00791 -1.80427 
290 1 26.9815 10.8161 7.30642 2.52744 -5.93299 7.65843 -0.767895 
126 1 26.9815 8.28647 4.91876 -0.397347 6.67549 8.84004 7.62183 
303 1 26.9815 11.7761 9.70853 2.04288 -9.00088 -4.84179 6.15029 
292 1 26.9815 10.436 8.91161 4.55672 6.27475 1.52282 -4.43082 
24 1 26.9815 8.82419 7.42662 0.560013 -7.87601 -7.4888 6.88907 
25 1 26.9815 13.5202 8.59698 3.73547 1.73415 4.68409 6.48436 
327 1 26.9815 15.8648 5.31866 4.52371 -7.07908 4.75964 0.921659 
221 1 26.9815 14.0921 5.17253 1.99405 2.16528 5.19977 4.87706 
405 1 26.9815 15.8717 9.73627 0.252259 -2.46481 1.40072 -4.83315 
276 1 26.9815 12.9462 6.12202 4.26909 -9.1229 -3.99067 4.90891 
343 1 26.9815 20.8221 10.0727 0.931073 -3.11892 5.23243 -0.66472 
38 1 26.9815 18.5835 5.61058 4.52924 6.10065 -4.30658 0.108559 
195 1 26.9815 20.3379 4.95289 2.2521 5.77259 8.54155 -0.208292 
297 1 26.9815 17.5905 4.95759 1.94254 0.456212 3.72547 -6.28863 
50 1 26.9815 16.9729 7.83727 2.50902 -5.09684 -4.97039 7.25412 
200 1 26.9815 18.4537 9.85301 4.39851 2.21174 -8.74164 2.66804 
215 1 26.9815 19.3144 5.53086 -0.352743 7.93194 -0.170712 -3.52573 
465 1 26.9815 18.5371 8.28761 0.515294 7.85808 -3.2488 -2.64603 
428 1 26.9815 19.3147 7.01554 2.44214 -9.34403 -5.46242 -0.200376 
69 1 26.9815 0.319736 1.75619 8.98116 3.98975 5.56909 1.62553 
26 1 26.9815 2.60907 2.63102 8.19524 1.49288 -2.56868 5.60294 
151 1 26.9815 -0.512646 1.78333 6.15163 -3.24062 -7.08828 -7.9507 
445 1 26.9815 2.26201 0.450004 6.30401 -7.5218 -5.85814 2.8514 
55 1 26.9815 1.61253 3.30606 5.13906 -2.43736 0.72052 4.04952 
338 1 26.9815 -0.0352457 -0.460175 8.03063 -0.513844 2.14898 2.55665 
182 1 26.9815 0.715654 4.03779 8.16905 -2.29309 4.07436 -1.68343 
222 1 26.9815 6.77947 0.884395 6.39134 -8.38835 -5.25464 -1.3767 
166 1 26.9815 4.4506 2.1978 5.61935 -0.272403 -6.25006 -4.15617 
440 1 26.9815 4.64913 0.904885 8.99299 -7.29855 -5.7397 -2.76693 
313 1 26.9815 6.33241 4.04569 5.39238 2.4887 6.82851 5.53034 
51 1 26.9815 4.98221 3.89909 7.97827 0.755988 -3.84295 -7.50356 
367 1 26.9815 7.51696 0.434079 8.78892 8.66954 -5.6872 -7.64779 
467 1 26.9815 10.2191 1.37973 9.31988 5.65503 -8.05848 6.55975 
469 1 26.9815 10.8002 4.20401 9.23908 -5.95116 -2.10532 -6.57221 
141 1 26.9815 8.34502 3.3493 7.59315 6.50274 7.32238 7.07198 
305 1 26.9815 10.8799 2.51551 6.81124 2.98769 2.10656 -8.08072 
372 1 26.9815 12.382 3.89637 4.90496 -5.1493 0.54449 2.813 
83 1 26.9815 13.7171 2.45644 6.39867 7.56275 5.04554 0.405689 
165 1 26.9815 14.037 1.21792 8.61692 -0.0609197 -0.612434 2.68028 
239 1 26.9815 13.738 0.375198 5.1486 0.510774 -3.39572 4.8066 
58 1 26.9815 13.6152 3.89956 9.24789 -8.94189 6.94262 1.22241 
73 1 26.9815 15.9327 1.24279 5.49521 6.71164 6.54962 -5.54862 
60 1 26.9815 16.1863 3.07871 7.17065 8.58488 -5.3665 3.78118 
354 1 26.9815 17.1863 2.01633 9.56841 -8.49506 -5.76826 -2.15889 
71 1 26.9815 20.4639 4.67589 5.96918 -2.61041 -5.96527 -4.82805 
39 1 26.9815 19.4772 0.13483 6.50389 8.86273 6.70483 -3.09117 
143 1 26.9815 18.3775 3.28166 8.10232 -1.02693 -8.12455 5.10626 
128 1 26.9815 18.0078 -0.253141 9.15045 5.15993 6.65537 -2.47861 
112 1 26.9815 19.6271 3.91839 10.029 7.26575 3.93669 -5.04827 
13 1 26.9815 0.438193 9.6116 8.76482 4.20073 2.63121 -6.75256 
97 1 26.9815 3.13579 5.75736 6.54632 3.52919 9.37957 0.316581 
79 1 26.9815 0.282801 6.7813 7.17809 -5.0399 9.34787 3.44056 
500 1 26.9815 3.21193 8.87804 6.21739 -8.25522 -4.19871 1.78288 
271 1 26.9815 1.27017 8.10741 5.20152 -3.37086 3.58113 7.63354 
476 1 26.9815 0.666605 10.0454 6.38378 3.18395 -7.87705 5.98751 
358 1 26.9815 5.08909 10.0825 6.90115 -7.06274 2.03916 5.18199 
94 1 26.9815 6.90421 8.78085 8.55744 -7.74563 2.73232 -7.73644 
479 1 26.9815 6.40269 5.94846 9.3385 -1.4012 4.29874 -1.03341 
301 1 26.9815 5.3782 6.91637 6.0097 -2.1068 -7.01623 1.47104 
74 1 26.9815 4.17587 7.32536 8.57503 6.04106 -7.65318 -1.96169 
307 1 26.9815 7.6987 8.98657 5.37169 8.04902 8.3251 3.1427 
114 1 26.9815 7.90857 5.91903 6.55753 -2.39339 0.336928 7.6487 
187 1 26.9815 11.8502 9.36339 6.57127 1.04282 -7.22255 8.71118 
178 1 26.9815 9.31778 8.62223 7.58735 -0.990937 5.33883 -5.38389 
214 1 26.9815 10.9936 6.57017 7.5722 -4.81579 5.47869 -2.04587 
144 1 26.9815 11.1728 8.77776 9.42909 -0.730708 -1.50196 5.32077 
122 1 26.9815 9.17935 6.59185 9.20784 4.06526 -0.812075 -7.23697 
123 1 26.9815 9.74331 5.81589 4.95322 1.64222 -6.37168 3.3539 
125 1 26.9815 14.7591 6.08172 8.38226 -1.18849 -6.52482 -1.34981 
47 1 26.9815 13.7342 5.21986 6.49507 -2.51581 -5.50403 2.68933 
279 1 26.9815 14.9016 7.69035 5.85633 -3.29714 4.21671 6.46638 
401 1 26.9815 16.3818 8.89304 8.30022 2.72262 1.48174 7.52608 
411 1 26.9815 13.6713 8.51929 8.11209 -5.43962 0.663476 6.43632 
311 1 26.9815 18.8981 5.96641 7.65897 7.16688 5.64915 -1.92698 
102 1 26.9815 17.2774 7.89647 5.56015 5.60487 -1.01188 -1.40708 
29 1 26.9815 16.8611 5.07114 9.08496 -2.85204 -0.681687 3.19072 
158 1 26.9815 19.5934 8.26579 7.13702 0.0657073 2.04368 7.18263 
62 1 26.9815 19.7072 7.98037 9.69564 -1.20671 1.57055 2.93735 
334 1 26.9815 20.2539 7.64419 4.79259 -2.8851 -1.77195 -4.05709 
241 1 26.9815 1.08974 3.58118 11.4351 5.14045 -6.61959 -4.4853 
177 1 26.9815 0.20466 3.6396 14.4818 5.6048 -2.19488 3.84156 
416 1 26.9815 2.56851 1.86549 15.1433 -5.27386 -4.36643 -7.67595 
242 1 26.9815 2.40657 4.27019 13.3727 3.98056 -1.12352 7.51649 
356 1 26.9815 0.936272 1.25289 12.6263 -0.376433 1.2304 -2.56521 
202 1 26.9815 1.28163 -0.404613 10.4558 2.4437 8.37588 6.43554 
226 1 26.9815 1.60414 -0.484461 14.6812 0.417362 -2.30873 -5.91298 
5 1 26.9815 3.49466 2.22072 11.4314 4.92842 -2.84875 -6.88697 
435 1 26.9815 6.21371 4.11691 11.835 -3.48141 -6.08842 -4.56595 
161 1 26.9815 4.23049 0.787414 13.1085 6.71232 -0.588026 6.28544 
227 1 26.9815 6.18647 1.0723 10.7762 0.161207 -0.922589 2.15831 
96 1 26.9815 5.23881 2.87894 13.9331 3.46884 -6.90116 -5.23315 
417 1 26.9815 5.17854 0.250527 15.3813 -1.48433 -6.64425 6.0656 
41 1 26.9815 7.76676 4.57269 13.6456 4.23344 -2.08097 -4.01016 
386 1 26.9815 7.35775 1.22651 14.3359 -1.24497 5.49563 5.41339 
34 1 26.9815 12.1884 2.5927 11.1415 6.87303 1.99862 7.67315 
248 1 26.9815 8.90927 1.13298 11.9174 -2.99062 -0.922357 6.06431 
135 1 26.9815 10.9532 -0.344577 11.7169 -4.37884 -6.993 3.81786 
216 1 26.9815 8.56526 3.79658 10.9594 -4.1953 9.50546 8.95512 
9 1 26.9815 10.0765 2.74339 13.6717 -5.06453 2.0722 5.98309 
118 1 26.9815 12.8816 1.6103 13.0763 -0.293913 1.90209 -6.71887 
109 1 26.9815 15.6525 0.674265 13.1087 8.98029 4.9458 6.02563 
119 1 26.9815 15.0017 2.78039 11.395 3.66386 -0.651277 -3.24339 
198 1 26.9815 14.8504 1.68177 15.3184 -2.71387 -7.32158 7.80479 
300 1 26.9815 13.1428 0.0879287 10.8885 3.72082 -4.54871 -3.1132 
173 1 26.9815 15.8459 -0.0696664 10.6991 8.76756 -3.20447 3.08571 
99 1 26.9815 14.8951 4.08083 14.2248 -1.48802 5.25178 -8.16037 
284 1 26.9815 20.3348 1.04252 14.903 -2.05056 -4.41295 5.27674 
179 1 26.9815 18.192 0.629669 12.2295 2.21226 0.053015 4.57006 
137 1 26.9815 20.0308 2.6802 12.1115 6.6489 5.60351 7.25348 
106 1 26.9815 19.0463 4.18438 14.9369 -0.352027 4.7926 0.315975 
174 1 26.9815 19.8584 1.04792 10.3567 -6.49439 -1.41063 6.2078 
171 1 26.9815 17.2394 3.87526 12.3059 9.0324 -6.54236 -0.436209 
399 1 26.9815 17.4057 2.38048 14.7688 2.58734 1.18125 3.15993 
275 1 26.9815 2.65703 9.51813 15.0274 -0.103605 2.82511 -0.852575 
134 1 26.9815 0.463035 5.79123 10.2057 3.94165 -8.11751 -6.02982 
406 1 26.9815 -0.376961 7.72013 11.8301 -1.52284 -6.90595 6.72656 
1 1 26.9815 2.56937 6.3955 12.3188 -9.33914 2.85709 0.613385 
111 1 26.9815 3.34484 4.98806 10.2469 6.33742 1.26929 4.15437 
245 1 26.9815 1.84479 6.04099 15.2607 -6.91944 7.70578 0.342738 
330 1 26.9815 2.23789 8.01795 10.2885 0.999141 -1.93584 -4.62253 
403 1 26.9815 5.89715 9.49677 10.8907 7.27837 -5.82731 3.43744 
152 1 26.9815 5.07475 5.90783 13.8833 1.49171 -3.84915 -0.871803 
235 1 26.9815 4.95762 9.16776 14.6498 0.480623 7.37258 0.523576 
193 1 26.9815 4.86693 7.31328 11.7102 -2.78725 -2.20317 -6.21013 
197 1 26.9815 7.19076 7.02248 12.3663 -1.38858 -5.48811 -7.01948 
175 1 26.9815 7.159 7.46841 15.1969 -7.382 -3.67534 0.0544788 
409 1 26.9815 7.56677 9.70118 13.3793 -3.11473 1.76464 -6.44329 
259 1 26.9815 8.7664 9.0533 10.5162 8.93718 1.18931 -9.28618 
186 1 26.9815 10.4853 6.16196 11.3583 4.6947 5.90351 3.36439 
426 1 26.9815 9.70204 6.23102 14.4007 -6.55419 -8.48154 -6.43285 
148 1 26.9815 10.3747 9.89852 13.1502 8.02185 -4.7531 -0.430934 
199 1 26.9815 12.2636 9.05367 15.0336 -4.17209 -6.95998 4.31793 
160 1 26.9815 12.5878 5.35996 14.0166 8.97841 -8.19328 -4.2344 
180 1 26.9815 16.562 6.54294 13.8589 7.08742 1.02365 -2.53111 
210 1 26.9815 16.2879 9.27888 12.0686 5.29428 9.69422 2.4887 
31 1 26.9815 13.7591 7.77155 13.3171 -2.20543 -1.22273 3.55873 
120 1 26.9815 14.56 5.13676 11.9648 -9.23315 -8.66626 -5.8293 
355 1 26.9815 14.41 8.037 10.8431 -6.31867 -5.4542 8.50775 
168 1 26.9815 12.8606 6.3921 10.3071 2.85902 1.99369 -1.30382 
446 1 26.9815 12.7255 9.8483 11.7549 -7.77258 -6.50454 6.91366 
294 1 26.9815 14.8981 10.1007 14.1771 -2.93093 4.23953 1.99267 
453 1 26.9815 20.4507 5.14883 12.7467 1.18252 -6.60349 7.32842 
76 1 26.9815 18.4505 6.85343 12.2314 7.99423 -6.94707 -0.521397 
429 1 26.9815 19.9893 8.44243 14.0976 -8.1297 -1.58322 7.39564 
16 1 26.9815 17.243 7.51482 10.4114 8.72064 3.02908 7.89156 
481 1 26.9815 18.779 9.9185 12.1635 6.90701 -0.0196527 3.13379 
274 1 26.9815 17.1492 8.99761 14.5643 9.04565 -5.5846 -2.12883 
442 1 26.9815 2.9141 0.419458 17.2033 -2.516 -8.65146 2.70422 
261 1 26.9815 0.0566655 1.15276 18.5819 1.21134 -2.83511 0.674197 
220 1 26.9815 2.66508 3.43265 16.9602 -6.56421 7.93644 -4.525 
252 1 26.9815 2.97866 0.250266 19.779 -1.19217 5.6206 -1.32255 
493 1 26.9815 2.42203 3.17129 19.4933 8.46318 0.956665 -0.9452 
459 1 26.9815 -0.306032 4.47734 18.8602 -4.74762 5.18251 -7.93461 
317 1 26.9815 6.29204 2.69635 16.3537 3.11526 2.05527 -1.42395 
48 1 26.9815 5.49801 2.92886 20.1687 3.94094 -1.53448 -5.21918 
22 1 26.9815 5.10661 0.843898 18.1457 2.23892 4.52085 -1.53712 
458 1 26.9815 4.84519 4.53163 18.3047 5.12232 2.9572 1.25257 
159 1 26.9815 7.48594 4.36969 18.3811 0.600044 -0.182142 7.68351 
213 1 26.9815 7.39086 0.233885 16.9847 2.67833 -3.54292 7.56282 
3 1 26.9815 8.23412 1.7454 18.8146 0.189523 -5.5826 -5.40577 
70 1 26.9815 8.46259 -0.647864 19.22 -2.22355 8.43955 4.46941 
212 1 26.9815 10.645 1.74258 18.6596 4.39446 5.7321 5.88507 
192 1 26.9815 9.46605 1.00201 16.0082 4.52532 5.60927 -6.79624 
236 1 26.9815 9.4081 3.49086 16.094 -2.58692 0.809042 -5.29637 
211 1 26.9815 10.4763 3.16045 20.8787 -4.18703 0.622221 -3.06003 
87 1 26.9815 13.5167 1.44296 19.8401 3.6802 -3.26674 -8.29055 
487 1 26.9815 12.4139 0.00494655 16.9512 -4.02448 -2.82261 7.33881 
240 1 26.9815 14.2611 3.89894 16.4242 8.67961 -2.67771 2.98853 
65 1 26.9815 12.3205 2.70633 15.6734 2.43552 0.237559 1.03606 
4 1 26.9815 16.1897 2.52885 18.0653 4.14926 6.34249 6.63632 
56 1 26.9815 13.3102 3.78273 19.1426 1.00967 8.70006 2.38607 
266 1 26.9815 15.7209 -0.41947 16.9729 0.201349 8.34349 -2.00516 
68 1 26.9815 18.2396 2.62496 19.2155 -1.74095 5.41406 2.19776 
238 1 26.9815 20.5318 2.46059 20.642 -7.1703 5.7041 -2.57308 
67 1 26.9815 19.6907 0.0602439 19.8419 -6.10533 -5.58377 -6.7049 
90 1 26.9815 19.961 2.67672 16.9751 -0.102333 5.70736 -3.28804 
52 1 26.9815 18.0632 0.749301 17.0321 -6.08721 3.23306 -1.75749 
282 1 26.9815 17.0828 -0.514308 19.3182 6.42263 -8.29163 6.37542 
407 1 26.9815 0.163953 8.23322 16.1448 5.9163 2.56767 -2.60791 
188 1 26.9815 2.63906 8.93855 17.6705 -0.637279 -2.30253 5.77887 
277 1 26.9815 -0.0883256 5.29335 16.8112 -9.15501 -7.77315 -3.66915 
475 1 26.9815 0.487082 7.55718 19.187 -9.11201 -5.89213 4.48185 
267 1 26.9815 2.41671 5.68292 18.4576 8.28776 -8.4706 -7.23088 
183 1 26.9815 6.43494 5.20128 16.1908 -0.102786 -1.89576 3.62198 
377 1 26.9815 7.21483 8.61694 18.1442 -2.882 -5.23061 -4.12296 
28 1 26.9815 5.80101 6.95194 19.7314 -8.70471 0.928773 -7.63754 
162 1 26.9815 4.41319 7.16158 16.1622 3.84203 -0.472531 6.6736 
413 1 26.9815 9.2351 9.61158 16.4126 6.82895 0.424728 4.6405 
209 1 26.9815 10.5882 4.89135 18.7724 -4.13916 -8.05359 -3.70112 
203 1 26.9815 8.60829 6.9448 19.0793 -5.68634 -5.61072 2.4604 
145 1 26.9815 11.9262 6.20184 16.6852 0.214344 4.94826 -8.04355 
256 1 26.9815 11.4577 8.49535 17.7227 -7.88651 0.833801 4.19022 
194 1 26.9815 8.83961 6.29894 16.6486 -3.62393 1.37495 5.64112 
408 1 26.9815 9.94834 9.37401 20.0128 6.63832 -5.95125 8.96837 
323 1 26.9815 13.9333 6.9764 18.5595 -4.26807 6.33765 -0.804542 
6 1 26.9815 13.3845 5.59675 20.8504 6.38019 -0.789393 4.32693 
185 1 26.9815 14.2449 6.56973 15.5528 -2.88795 5.73245 -6.7848 
250 1 26.9815 16.5601 6.1332 20.3316 -2.80948 -6.22007 0.748027 
136 1 26.9815 14.3754 8.79407 17.0157 7.42482 -2.65347 3.66715 
37 1 26.9815 13.7037 9.60956 19.4822 -3.67528 7.04286 3.87607 
234 1 26.9815 16.4532 9.34629 18.9217 3.19119 2.91602 -7.02809 
478 1 26.9815 20.5114 9.91301 18.748 4.16946 -5.29844 1.69156 
376 1 26.9815 19.3707 6.49125 15.6792 0.632504 9.36705 -6.76985 
189 1 26.9815 16.6463 5.05201 15.938 -7.92912 5.54533 9.03578 
362 1 26.9815 19.5122 7.76782 17.9728 2.71415 6.91565 -8.52654 
170 1 26.9815 18.1158 5.02782 18.2237 -3.12902 1.85305 0.858585 
217 1 26.9815 16.6431 7.48532 16.5661 -4.09 5.0085 6.34176 
414 1 26.9815 18.4486 9.86588 16.7773 8.09382 3.51501 5.29071 
357 1 26.9815 2.81129 13.2806 -0.0233994 3.46347 -4.77271 2.64909 
454 1 26.9815 3.49098 14.9285 1.55371 -7.47125 -6.47766 -3.52606 
251 1 26.9815 0.870612 12.1162 3.85707 -0.808285 6.96447 -1.31289 
351 1 26.9815 3.57206 12.8266 2.96965 -5.6488 -3.23789 -4.02875 
353 1 26.9815 2.08184 10.9089 1.33489 6.13136 -5.68887 1.23805 
336 1 26.9815 1.17794 14.8184 3.28368 6.04501 3.15921 -4.60615 
155 1 26.9815 0.228595 12.8059 0.535619 -0.475981 -8.38746 3.7205 
191 1 26.9815 5.96414 11.5517 1.23384 -1.9592 -3.01022 -3.5725 
263 1 26.9815 6.39608 11.1602 3.94518 6.09237 4.50563 1.31006 
325 1 26.9815 6.01955 14.3196 2.20536 4.77532 -6.88966 3.31029 
260 1 26.9815 3.81585 10.2526 3.86201 -5.34751 -3.75478 -4.31281 
494 1 26.9815 8.01484 13.4206 -0.141474 5.19724 5.19352 -7.77053 
308 1 26.9815 10.9891 12.0042 4.66453 8.62006 -5.52018 8.48144 
147 1 26.9815 8.35157 12.8118 2.73401 -4.82763 -8.62214 -3.55469 
10 1 26.9815 11.6507 15.0953 2.97112 4.99399 8.55565 -3.5234 
322 1 26.9815 9.82627 14.4079 4.54949 -9.27406 6.10535 -5.17423 
304 1 26.9815 8.65108 10.3552 1.1523 5.72817 1.17215 -1.94609 
265 1 26.9815 9.33482 10.8553 3.90203 -5.95246 -5.50775 -4.31947 
253 1 26.9815 14.0385 13.1892 3.3399 2.74819 6.10178 8.81122 
320 1 26.9815 15.4541 12.3818 1.05567 -5.48985 6.7429 8.41987 
247 1 26.9815 13.396 10.986 4.07146 3.50102 -2.13169 -6.22329 
257 1 26.9815 13.0855 12.1627 1.33201 -0.168349 5.1707 -3.08171 
425 1 26.9815 13.2424 10.1341 0.156295 6.62752 -2.65024 2.52155 
14 1 26.9815 16.1639 15.2613 2.09598 -8.01276 4.48556 -3.32877 
391 1 26.9815 12.3644 13.9908 -0.272196 -7.3081 0.122707 -7.04348 
332 1 26.9815 18.6574 14.5137 1.65454 8.41148 0.746614 -0.981765 
92 1 26.9815 16.6103 11.8472 4.35859 6.25814 -0.458893 -4.39088 
463 1 26.9815 17.6007 11.6771 -0.408643 7.86022 -4.17378 -4.43905 
444 1 26.9815 19.5498 12.8132 3.53801 -4.1165 3.17528 6.86213 
447 1 26.9815 18.1156 10.8271 2.01919 8.3619 -0.774214 0.67677 
314 1 26.9815 20.3078 15.3464 4.44613 -7.69635 -0.700739 -2.7982 
486 1 26.9815 -0.120411 17.3288 -0.592428 7.5487 9.26099 3.51366 
344 1 26.9815 1.49184 17.7894 3.55087 6.01295 0.347945 7.97364 
309 1 26.9815 1.02382 20.849 1.88976 1.03715 8.50923 -7.35605 
415 1 26.9815 1.91553 19.0091 0.630291 -5.92232 2.09341 -7.22088 
295 1 26.9815 -0.458369 18.6184 2.55902 -5.11325 -3.50177 -3.06903 
264 1 26.9815 3.2974 15.8644 4.33443 0.337358 2.33608 4.96738 
140 1 26.9815 5.46881 17.2695 3.62816 -2.21305 0.152829 0.170004 
206 1 26.9815 4.54395 17.8598 1.17801 -3.3801 -3.90318 -3.22705 
499 1 26.9815 7.57282 18.5133 2.23135 6.79901 -3.76168 9.03955 
489 1 26.9815 6.91516 19.3898 -0.574757 -0.0406894 6.70166 -0.854861 
229 1 26.9815 7.92083 15.9237 3.7732 1.23936 6.05369 -4.77339 
321 1 26.9815 6.91243 16.5482 0.969746 1.3342 -8.01118 6.73995 
368 1 26.9815 3.67081 19.3234 2.86096 -8.7927 0.692333 -7.61218 
388 1 26.9815 6.33977 20.2346 4.66518 -8.55203 -2.15666 -0.785832 
339 1 26.9815 4.8284 15.5178 -0.535325 -8.14431 -6.92779 -9.26123 
30 1 26.9815 9.44375 16.0762 0.957268 2.46792 8.77778 -3.73346 
342 1 26.9815 10.0865 19.4546 4.09836 -7.72806 2.35337 -0.14949 
315 1 26.9815 10.1742 16.8733 3.9144 5.91955 1.70024 1.69563 
346 1 26.9815 10.3085 18.4987 1.69454 -8.62702 -5.63195 -3.24365 
397 1 26.9815 9.69143 20.3436 0.137596 -0.64038 1.03201 8.44305 
12 1 26.9815 11.9949 18.296 -0.611286 0.934582 3.5268 0.102783 
472 1 26.9815 14.1478 16.4621 4.21582 1.7929 -6.10611 -6.11034 
370 1 26.9815 12.4371 20.3181 1.49225 -8.87917 7.49628 -9.02938 
17 1 26.9815 12.8889 17.5242 2.29179 -6.02316 7.80813 1.45229 
15 1 26.9815 14.451 18.7053 0.265947 -2.41447 -2.78891 0.755192 
350 1 26.9815 15.9696 17.9983 2.75002 -0.983513 0.741485 5.22034 
400 1 26.9815 12.5813 19.5338 4.2124 2.52227 -1.90557 5.18015 
11 1 26.9815 19.3177 17.8965 0.447817 -2.12981 -5.58261 -5.71938 
132 1 26.9815 17.9697 19.7155 3.75097 1.89957 -6.16374 4.97204 
464 1 26.9815 18.8648 16.998 2.91188 5.01165 -8.70339 -1.44872 
390 1 26.9815 20.7773 15.9073 1.51639 0.241053 -8.22082 -4.98195 
491 1 26.9815 17.9719 20.0297 -0.311464 8.74417 -8.11171 -0.914616 
81 1 26.9815 2.77973 13.0327 5.36849 2.18778 -4.79445 6.98897 
172 1 26.9815 0.336904 12.4089 7.66426 2.11358 5.05236 4.02469 
61 1 26.9815 3.42031 15.1591 6.66826 0.892525 -0.965438 2.84189 
101 1 26.9815 2.56631 11.2402 7.82695 6.16008 -3.52603 -4.26856 
91 1 26.9815 2.4169 13.4449 9.81593 -1.82431 9.08034 -1.45981 
72 1 26.9815 5.48713 14.6318 4.87589 -8.32208 -0.43862 3.63637 
272 1 26.9815 7.31131 11.2891 7.67207 0.91016 -0.312706 -5.69763 
88 1 26.9815 5.4556 13.5972 9.81167 0.922939 -7.32607 6.31913 
115 1 26.9815 7.66378 13.2656 6.17664 -3.10771 8.74907 -5.75222 
369 1 26.9815 6.14162 15.4385 7.51616 -1.82062 -2.89815 -5.28337 
75 1 26.9815 7.74257 13.5068 9.18181 -0.499911 -3.96349 -0.302791 
142 1 26.9815 5.14175 12.9863 7.04787 7.63106 7.2075 -1.38656 
138 1 26.9815 4.27793 11.0582 9.63143 8.47471 -8.51858 -0.377301 
419 1 26.9815 10.4912 13.354 7.25292 5.43576 3.23753 -0.442226 
316 1 26.9815 11.2842 12.7217 9.45154 -6.91009 -1.44639 -3.37243 
268 1 26.9815 9.97518 15.0664 9.99688 -6.90204 4.48477 1.96104 
389 1 26.9815 13.2822 14.4993 8.8081 3.63127 5.96964 5.86403 
374 1 26.9815 12.8779 14.2944 5.96444 1.06282 -3.62959 -7.3567 
393 1 26.9815 13.0704 12.3925 7.66474 -8.57859 -5.00392 -1.74217 
273 1 26.9815 15.6703 12.9511 8.63216 -3.06695 -8.44279 -1.94792 
402 1 26.9815 13.89 10.6785 9.3229 6.15243 -2.74385 0.327311 
100 1 26.9815 14.8328 10.6239 6.71671 7.88944 6.35177 -3.82644 
246 1 26.9815 15.5428 14.2027 5.13315 7.78085 -7.40552 1.73254 
280 1 26.9815 17.925 13.8854 5.46935 -4.9445 4.77664 -9.19439 
375 1 26.9815 16.7021 14.8171 9.81715 3.99829 1.16194 -7.17764 
258 1 26.9815 17.252 10.883 9.72756 -8.88059 2.11466 -1.23201 
131 1 26.9815 20.7588 13.5458 5.55469 -6.26203 3.84724 7.24429 
331 1 26.9815 19.9095 11.341 6.00607 7.96035 -3.34553 -1.87648 
337 1 26.9815 18.1898 10.5211 7.63681 6.00452 6.62144 0.151991 
387 1 26.9815 18.8796 13.4853 7.9565 4.3781 7.92024 0.533119 
107 1 26.9815 19.9759 10.9315 9.99706 1.57453 2.00759 -7.97394 
422 1 26.9815 19.1259 15.4222 10.063 2.04932 -2.96003 8.19114 
373 1 26.9815 2.28288 20.4443 8.09134 -6.11078 -4.77213 -6.0031 
104 1 26.9815 0.305826 20.4009 5.07274 -4.28964 -4.92133 0.0537818 
105 1 26.9815 2.26922 18.0738 8.80972 -6.10943 -0.482668 2.64399 
364 1 26.9815 2.4625 18.1945 5.7696 -7.74847 -7.99098 -4.99805 
421 1 26.9815 3.80967 15.6784 9.69855 2.11395 -7.3175 2.51766 
448 1 26.9815 7.27783 19.7282 9.91438 2.97953 -5.73754 -3.354 
383 1 26.9815 5.03665 17.6255 9.13871 3.72143 5.66126 -1.8448 
360 1 26.9815 5.4265 20.1368 7.94647 -5.37495 -2.88797 -0.557679 
379 1 26.9815 4.97186 17.6704 6.19282 8.28439 8.80606 -8.89629 
466 1 26.9815 4.01346 20.5503 5.61629 -5.65748 -1.26704 -1.86895 
395 1 26.9815 8.14426 18.9831 7.36757 -6.78724 -6.91408 -0.636986 
57 1 26.9815 8.0319 17.9529 5.31956 8.36736 -1.53407 1.64822 
230 1 26.9815 9.89611 20.0096 9.66908 4.64268 0.281873 6.49484 
93 1 26.9815 11.5343 15.907 7.88683 1.35093 -4.10308 0.946665 
108 1 26.9815 8.58009 15.948 6.95173 -0.920355 8.69864 -3.10924 
436 1 26.9815 8.86644 17.6114 9.66766 -2.16424 7.15918 -0.256448 
398 1 26.9815 10.6959 18.1319 6.44342 2.82408 6.17879 -9.20873 
396 1 26.9815 12.5544 20.4266 8.14329 -8.42176 6.25033 -8.30274 
365 1 26.9815 14.9154 15.9311 6.76944 -0.575583 -0.43075 6.51572 
21 1 26.9815 13.2377 17.8956 8.00777 6.29661 -0.718103 1.09242 
7 1 26.9815 16.2275 18.183 7.90381 5.57957 -1.03866 -7.87884 
306 1 26.9815 15.3991 20.8138 7.669 -2.75801 8.55643 -8.77401 
298 1 26.9815 15.0099 18.8659 5.30231 7.79828 8.30463 -8.24679 
63 1 26.9815 16.9185 16.5429 5.04702 -4.90103 -4.0025 -9.10976 
394 1 26.9815 19.045 17.6439 5.77617 -7.71677 7.36517 5.38303 
363 1 26.9815 17.5735 19.7667 6.2911 8.59322 5.54502 3.83786 
359 1 26.9815 18.172 16.0937 7.77669 -3.28818 6.9793 7.62437 
384 1 26.9815 -0.30372 12.9323 11.4024 4.90286 -7.2942 5.98803 
412 1 26.9815 0.787431 13.855 13.2452 7.36482 5.52209 6.58915 
164 1 26.9815 2.6967 15.4229 11.9723 6.07948 9.66045 7.82263 
378 1 26.9815 2.49837 14.9953 14.9844 -5.5071 -5.90835 9.12191 
66 1 26.9815 1.21833 11.1586 10.4696 -2.41226 -2.62044 4.39882 
468 1 26.9815 2.4551 12.4486 12.9148 -6.73149 6.04472 -7.59153 
434 1 26.9815 0.00616521 10.5734 12.5164 1.38074 -2.07552 -4.74528 
113 1 26.9815 6.38624 11.8102 13.0631 5.65776 0.743363 -0.17914 
392 1 26.9815 4.37646 11.8444 15.0616 0.555752 -5.27407 4.6692 
371 1 26.9815 4.6218 14.0598 13.1749 4.19873 6.0719 5.64377 
243 1 26.9815 3.85835 10.5507 12.5632 -7.06807 4.88887 -8.23925 
225 1 26.9815 7.22451 11.4491 10.6857 -0.277767 -3.98375 -8.18611 
474 1 26.9815 8.86546 11.8435 14.2307 -2.57767 8.36076 -7.43666 
470 1 26.9815 8.00978 14.3342 13.4446 -8.0862 8.58486 6.98537 
340 1 26.9815 10.882 13.893 14.294 7.32368 -2.08389 2.43246 
341 1 26.9815 12.242 14.983 11.8581 -6.81694 -6.93469 4.22826 
497 1 26.9815 9.54807 12.502 11.9588 -1.55175 6.15976 3.57019 
149 1 26.9815 14.8603 11.9437 11.1488 -1.65628 5.31598 -1.16043 
110 1 26.9815 13.6351 12.8542 14.5719 -0.861198 4.8606 -2.65301 
329 1 26.9815 12.2897 12.2872 12.3407 -1.18261 -0.101637 -7.02476 
380 1 26.9815 14.5317 14.4132 11.9209 4.54845 6.13589 9.05479 
433 1 26.9815 20.3663 12.0861 13.7693 -3.8409 -4.08737 6.2578 
449 1 26.9815 17.2941 13.9303 13.4502 -1.30961 9.59431 5.15187 
461 1 26.9815 19.7514 14.7989 12.5166 4.1452 -6.41841 -5.76462 
404 1 26.9815 17.9398 12.9939 11.2222 8.7845 4.26202 -8.28855 
430 1 26.9815 18.7658 13.823 15.4531 -5.13625 -1.95994 -3.04611 
477 1 26.9815 17.6866 11.3714 13.8921 5.41744 9.55117 1.05515 
385 1 26.9815 0.501109 19.5027 12.9023 -4.39055 -0.564795 8.57368 
2 1 26.9815 0.704694 16.729 13.5843 -8.7909 -6.05129 -8.96143 
285 1 26.9815 2.64587 17.6954 14.9411 -0.398745 -4.1101 -6.15652 
157 1 26.9815 4.45509 16.3968 14.0572 -5.82606 -6.56278 7.54001 
269 1 26.9815 7.24731 17.8076 12.4538 -0.639489 -2.48229 -2.66941 
153 1 26.9815 4.66636 17.9767 11.6861 0.410233 7.25118 -6.62206 
23 1 26.9815 4.08125 19.7533 14.4475 0.810364 4.38621 8.88011 
418 1 26.9815 7.4053 15.6714 15.366 5.59855 3.78217 4.05419 
154 1 26.9815 5.88757 18.2096 15.3471 4.25509 -7.77107 -5.64029 
288 1 26.9815 6.13407 20.411 12.7425 0.867661 6.2591 -8.68975 
438 1 26.9815 3.88058 20.2614 10.8854 7.51925 -5.1357 1.37158 
347 1 26.9815 7.2785 16.0888 10.3659 4.9222 3.39316 8.95669 
167 1 26.9815 10.9521 20.7445 14.7418 -9.17195 3.3021 -5.73576 
207 1 26.9815 12.2412 19.1055 12.7583 6.63933 -7.41534 3.12493 
318 1 26.9815 9.43427 19.0865 12.123 -0.968382 -3.72135 3.00302 
485 1 26.9815 10.4252 16.5594 13.5731 1.13264 5.24092 -5.92794 
437 1 26.9815 8.16208 19.8158 15.0118 -7.8834 -2.37822 9.15046 
85 1 26.9815 11.5351 18.4056 10.4281 -4.88391 6.48961 2.516 
455 1 26.9815 13.1499 17.8435 15.114 8.74319 -6.0836 2.44905 
439 1 26.9815 15.0032 17.8954 12.503 -0.62655 -6.82039 3.06037 
431 1 26.9815 13.8092 20.1329 15.1158 -2.00269 5.34262 2.9624 
443 1 26.9815 14.4933 15.556 14.1573 -4.57241 -7.25632 -4.28673 
450 1 26.9815 13.8093 16.5137 10.4669 7.964 2.58355 5.59578 
146 1 26.9815 14.1693 19.3742 10.2098 -6.41213 -5.14864 5.78895 
381 1 26.9815 19.4818 17.5129 11.8384 7.58705 6.86304 -5.53446 
150 1 26.9815 17.2394 19.8882 11.694 -7.97646 4.6864 8.33822 
233 1 26.9815 17.184 18.121 14.1792 -8.21476 -8.06453 -2.79836 
163 1 26.9815 17.7319 16.2022 12.4506 2.97387 -8.46794 0.41082 
484 1 26.9815 19.534 16.8953 14.5746 -7.69389 3.63022 0.842719 
366 1 26.9815 19.6386 20.192 11.1204 -7.41242 2.69354 5.77546 
498 1 26.9815 17.4129 20.8713 14.6547 3.56901 -5.31824 1.62936 
237 1 26.9815 19.8198 19.7526 14.2366 -5.45444 -8.02208 8.32259 
127 1 26.9815 16.9353 17.8075 10.5 7.51152 -5.70909 -5.87309 
427 1 26.9815 -0.322753 10.7032 16.1878 5.16483 -3.37014 -8.71456 
139 1 26.9815 2.62628 11.8988 18.4564 -5.91933 -3.07349 5.10177 
382 1 26.9815 2.19188 12.7266 15.9362 3.80046 3.17301 5.52772 
205 1 26.9815 0.533759 11.0345 20.0523 -0.396677 -6.327 -3.58726 
432 1 26.9815 0.527672 13.713 19.0357 -8.86445 -3.78449 -4.57485 
95 1 26.9815 3.35718 10.6896 20.8156 -1.68088 -1.52325 -1.39949 
130 1 26.9815 -0.0786266 15.13 15.846 3.06805 3.37746 3.91822 
231 1 26.9815 6.82035 10.3548 15.9293 -7.16401 0.429073 3.73674 
270 1 26.9815 7.05199 14.6393 18.244 8.05731 -0.160909 -5.12468 
462 1 26.9815 5.54896 13.3815 16.4166 -1.64421 4.73015 4.21599 
36 1 26.9815 5.38122 12.7781 20.014 6.89112 -8.1714 -6.13205 
473 1 26.9815 7.74503 12.1751 17.1656 -8.39141 -1.16861 7.54975 
201 1 26.9815 5.31809 10.155 18.4817 -2.83385 9.30281 3.94294 
312 1 26.9815 3.96626 14.3529 18.7856 -8.63398 6.71244 -4.49089 
190 1 26.9815 11.4226 11.5109 15.5407 2.36813 -4.92199 7.48161 
249 1 26.9815 10.0182 11.2343 17.8208 2.32183 -6.78616 5.33708 
456 1 26.9815 7.95991 10.9517 19.8381 -5.19079 5.59608 -6.70018 
98 1 26.9815 9.7357 14.7838 16.7083 -6.72484 6.81848 3.38734 
33 1 26.9815 11.9167 11.7081 19.5233 0.993001 5.76623 6.46048 
232 1 26.9815 9.7072 13.5601 19.0574 -6.7915 -4.45339 -9.01802 
420 1 26.9815 16.3497 11.5992 15.8815 -6.60471 -7.35934 1.67857 
482 1 26.9815 13.3124 11.4396 17.2159 6.70472 1.02607 1.15584 
310 1 26.9815 15.5418 13.9045 16.5989 -3.64999 6.92628 3.80575 
361 1 26.9815 13.5727 13.8418 18.8792 -6.29563 -6.26681 -8.4829 